<?xml version="1.0" encoding="UTF-8"?>

<!-- generated on 2026-06-11T16:32:15.758861+09:00 by Eclipse SUMO GUI 1.26.0
<sumoConfiguration xmlns:xsi="http://www.w3.org/2001/XMLSchema-instance" xsi:noNamespaceSchemaLocation="http://sumo.dlr.de/xsd/sumoConfiguration.xsd">

    <input>
        <net-file value="C:\Users\GLAB-PC002\Desktop\sumo_project\map.net.xml"/>
        <route-files value="C:\Users\GLAB-PC002\Desktop\sumo_project\car.rou.xml"/>
        <additional-files value="C:\Users\GLAB-PC002\Desktop\sumo_project\edgeData.add.xml"/>
    </input>

    <output>
        <tripinfo-output value="C:\Users\GLAB-PC002\Desktop\sumo_project\tripinfo.xml"/>
    </output>

    <time>
        <begin value="0"/>
        <end value="500"/>
    </time>

    <traci_server>
        <remote-port value="56996"/>
    </traci_server>

</sumoConfiguration>
-->

<meandata xmlns:xsi="http://www.w3.org/2001/XMLSchema-instance" xsi:noNamespaceSchemaLocation="http://sumo.dlr.de/xsd/meandata_file.xsd">
    <interval begin="0.00" end="60.00" id="edgeData">
        <edge id="-E0" sampledSeconds="17.04" traveltime="8.52" overlapDensity="4.74" waitingTime="0.00" timeLoss="8.67" speed="6.67" speedRelative="0.48" departed="1" arrived="0" entered="1" left="2" laneChangedFrom="0" laneChangedTo="0" flow="113.65"/>
        <edge id="-E1" sampledSeconds="37.97" traveltime="18.98" overlapDensity="10.83" waitingTime="0.00" timeLoss="29.10" speed="3.19" speedRelative="0.23" departed="0" arrived="1" entered="2" left="1" laneChangedFrom="0" laneChangedTo="0" flow="119.65"/>
        <edge id="-E10" sampledSeconds="21.99" traveltime="11.00" overlapDensity="5.78" waitingTime="0.00" timeLoss="12.33" speed="5.94" speedRelative="0.43" departed="0" arrived="1" entered="2" left="1" laneChangedFrom="0" laneChangedTo="0" flow="118.90"/>
        <edge id="-E11" sampledSeconds="10.50" traveltime="3.50" overlapDensity="4.52" waitingTime="0.00" timeLoss="3.05" speed="10.64" speedRelative="0.77" departed="0" arrived="1" entered="3" left="2" laneChangedFrom="0" laneChangedTo="0" flow="165.36"/>
        <edge id="-E12" sampledSeconds="8.00" traveltime="8.00" overlapDensity="4.40" waitingTime="0.00" timeLoss="6.25" speed="2.67" speedRelative="0.19" departed="1" arrived="0" entered="0" left="1" laneChangedFrom="0" laneChangedTo="0" flow="42.20"/>
        <edge id="-E13" sampledSeconds="4.00" traveltime="4.00" overlapDensity="2.39" waitingTime="0.00" timeLoss="2.55" speed="5.17" speedRelative="0.37" departed="1" arrived="0" entered="0" left="1" laneChangedFrom="0" laneChangedTo="0" flow="44.56"/>
        <edge id="-E14" sampledSeconds="4.00" traveltime="4.00" overlapDensity="2.40" waitingTime="0.00" timeLoss="2.35" speed="5.25" speedRelative="0.38" departed="1" arrived="0" entered="0" left="1" laneChangedFrom="0" laneChangedTo="0" flow="45.33"/>
        <edge id="-E15" sampledSeconds="19.00" traveltime="6.33" overlapDensity="7.48" waitingTime="0.00" timeLoss="12.57" speed="4.84" speedRelative="0.35" departed="3" arrived="0" entered="0" left="3" laneChangedFrom="0" laneChangedTo="0" flow="130.40"/>
        <edge id="-E16" sampledSeconds="5.00" traveltime="5.00" overlapDensity="2.34" waitingTime="0.00" timeLoss="2.88" speed="6.04" speedRelative="0.43" departed="1" arrived="0" entered="0" left="1" laneChangedFrom="0" laneChangedTo="0" flow="50.95"/>
        <edge id="-E17" sampledSeconds="0.00" departed="0" arrived="0" entered="0" left="0" laneChangedFrom="0" laneChangedTo="0"/>
        <edge id="-E18" sampledSeconds="11.00" traveltime="11.00" overlapDensity="7.29" waitingTime="0.00" timeLoss="9.45" speed="1.82" speedRelative="0.13" departed="1" arrived="0" entered="0" left="1" laneChangedFrom="0" laneChangedTo="0" flow="47.72"/>
        <edge id="-E19" sampledSeconds="12.00" traveltime="3.00" overlapDensity="10.94" waitingTime="0.00" timeLoss="8.96" speed="3.68" speedRelative="0.26" departed="4" arrived="0" entered="0" left="4" laneChangedFrom="0" laneChangedTo="0" flow="144.91"/>
        <edge id="-E2" sampledSeconds="40.55" traveltime="10.14" overlapDensity="17.28" waitingTime="0.00" timeLoss="30.71" speed="3.39" speedRelative="0.24" departed="2" arrived="0" entered="2" left="4" laneChangedFrom="0" laneChangedTo="0" flow="210.92"/>
        <edge id="-E20" sampledSeconds="3.00" traveltime="3.00" overlapDensity="2.32" waitingTime="0.00" timeLoss="2.13" speed="4.06" speedRelative="0.29" departed="1" arrived="0" entered="0" left="1" laneChangedFrom="0" laneChangedTo="0" flow="33.87"/>
        <edge id="-E21" sampledSeconds="0.00" departed="0" arrived="0" entered="0" left="0" laneChangedFrom="0" laneChangedTo="0"/>
        <edge id="-E22" sampledSeconds="9.00" traveltime="4.50" overlapDensity="4.50" waitingTime="0.00" timeLoss="5.10" speed="5.25" speedRelative="0.38" departed="2" arrived="0" entered="0" left="2" laneChangedFrom="0" laneChangedTo="0" flow="84.97"/>
        <edge id="-E23" sampledSeconds="0.00" departed="0" arrived="0" entered="0" left="0" laneChangedFrom="0" laneChangedTo="0"/>
        <edge id="-E3" sampledSeconds="18.55" traveltime="6.18" overlapDensity="9.11" waitingTime="0.00" timeLoss="11.74" speed="5.43" speedRelative="0.39" departed="0" arrived="1" entered="3" left="2" laneChangedFrom="0" laneChangedTo="0" flow="169.34"/>
        <edge id="-E4" sampledSeconds="9.84" traveltime="4.92" overlapDensity="6.05" waitingTime="0.00" timeLoss="5.73" speed="5.27" speedRelative="0.38" departed="0" arrived="0" entered="2" left="2" laneChangedFrom="0" laneChangedTo="0" flow="114.71"/>
        <edge id="-E5" sampledSeconds="17.44" traveltime="8.72" overlapDensity="4.77" waitingTime="0.00" timeLoss="8.78" speed="6.44" speedRelative="0.46" departed="1" arrived="0" entered="1" left="2" laneChangedFrom="0" laneChangedTo="0" flow="110.45"/>
        <edge id="-E6" sampledSeconds="19.79" traveltime="6.60" overlapDensity="6.06" waitingTime="0.00" timeLoss="7.84" speed="7.80" speedRelative="0.56" departed="2" arrived="1" entered="1" left="2" laneChangedFrom="0" laneChangedTo="0" flow="165.88"/>
        <edge id="-E7" sampledSeconds="10.02" traveltime="5.01" overlapDensity="5.65" waitingTime="0.00" timeLoss="5.63" speed="6.36" speedRelative="0.46" departed="0" arrived="1" entered="2" left="1" laneChangedFrom="0" laneChangedTo="0" flow="119.06"/>
        <edge id="-E8" sampledSeconds="21.00" traveltime="7.00" overlapDensity="5.95" waitingTime="0.00" timeLoss="9.22" speed="7.32" speedRelative="0.53" departed="3" arrived="0" entered="0" left="3" laneChangedFrom="0" laneChangedTo="0" flow="156.91"/>
        <edge id="-E9" sampledSeconds="26.59" traveltime="13.30" overlapDensity="10.82" waitingTime="0.00" timeLoss="20.35" speed="2.98" speedRelative="0.21" departed="0" arrived="0" entered="2" left="2" laneChangedFrom="0" laneChangedTo="0" flow="115.90"/>
        <edge id="E0" sampledSeconds="27.77" traveltime="6.94" overlapDensity="7.72" waitingTime="0.00" timeLoss="11.29" speed="7.77" speedRelative="0.56" departed="2" arrived="1" entered="2" left="3" laneChangedFrom="0" laneChangedTo="0" flow="210.87"/>
        <edge id="E1" sampledSeconds="9.24" traveltime="4.62" overlapDensity="2.64" waitingTime="0.00" timeLoss="1.19" speed="12.36" speedRelative="0.89" departed="0" arrived="0" entered="2" left="2" laneChangedFrom="0" laneChangedTo="0" flow="117.29"/>
        <edge id="E10" sampledSeconds="44.13" traveltime="14.71" overlapDensity="11.59" waitingTime="0.00" timeLoss="30.17" speed="3.98" speedRelative="0.29" departed="1" arrived="0" entered="2" left="3" laneChangedFrom="0" laneChangedTo="0" flow="166.04"/>
        <edge id="E11" sampledSeconds="50.97" traveltime="16.99" overlapDensity="21.94" waitingTime="0.00" timeLoss="42.15" speed="2.23" speedRelative="0.16" departed="0" arrived="0" entered="3" left="3" laneChangedFrom="0" laneChangedTo="0" flow="175.98"/>
        <edge id="E12" sampledSeconds="0.00" departed="0" arrived="0" entered="0" left="0" laneChangedFrom="0" laneChangedTo="0"/>
        <edge id="E13" sampledSeconds="3.54" traveltime="3.54" overlapDensity="2.12" waitingTime="0.00" timeLoss="1.28" speed="9.28" speedRelative="0.67" departed="0" arrived="1" entered="1" left="0" laneChangedFrom="0" laneChangedTo="0" flow="60.00"/>
        <edge id="E14" sampledSeconds="2.34" traveltime="2.34" overlapDensity="1.40" waitingTime="0.00" timeLoss="0.18" speed="14.01" speedRelative="1.01" departed="0" arrived="1" entered="1" left="0" laneChangedFrom="0" laneChangedTo="0" flow="60.00"/>
        <edge id="E15" sampledSeconds="4.50" traveltime="4.50" overlapDensity="1.77" waitingTime="0.00" timeLoss="1.18" speed="10.52" speedRelative="0.76" departed="0" arrived="1" entered="1" left="0" laneChangedFrom="0" laneChangedTo="0" flow="60.00"/>
        <edge id="E16" sampledSeconds="0.00" departed="0" arrived="0" entered="0" left="0" laneChangedFrom="0" laneChangedTo="0"/>
        <edge id="E17" sampledSeconds="3.52" traveltime="3.52" overlapDensity="1.63" waitingTime="0.00" timeLoss="0.18" speed="11.66" speedRelative="0.84" departed="0" arrived="1" entered="1" left="0" laneChangedFrom="0" laneChangedTo="0" flow="60.00"/>
        <edge id="E18" sampledSeconds="0.00" departed="0" arrived="0" entered="0" left="0" laneChangedFrom="0" laneChangedTo="0"/>
        <edge id="E19" sampledSeconds="0.00" departed="0" arrived="0" entered="0" left="0" laneChangedFrom="0" laneChangedTo="0"/>
        <edge id="E2" sampledSeconds="5.94" traveltime="2.97" overlapDensity="2.53" waitingTime="0.00" timeLoss="0.83" speed="12.58" speedRelative="0.91" departed="0" arrived="0" entered="2" left="2" laneChangedFrom="0" laneChangedTo="0" flow="114.62"/>
        <edge id="E20" sampledSeconds="3.94" traveltime="1.97" overlapDensity="3.04" waitingTime="0.00" timeLoss="0.32" speed="12.27" speedRelative="0.88" departed="0" arrived="2" entered="2" left="0" laneChangedFrom="0" laneChangedTo="0" flow="120.00"/>
        <edge id="E21" sampledSeconds="0.00" departed="0" arrived="0" entered="0" left="0" laneChangedFrom="0" laneChangedTo="0"/>
        <edge id="E22" sampledSeconds="0.00" departed="0" arrived="0" entered="0" left="0" laneChangedFrom="0" laneChangedTo="0"/>
        <edge id="E23" sampledSeconds="0.00" departed="0" arrived="0" entered="0" left="0" laneChangedFrom="0" laneChangedTo="0"/>
        <edge id="E3" sampledSeconds="9.06" traveltime="4.53" overlapDensity="4.45" waitingTime="0.00" timeLoss="4.52" speed="7.44" speedRelative="0.54" departed="0" arrived="1" entered="2" left="1" laneChangedFrom="0" laneChangedTo="0" flow="110.32"/>
        <edge id="E4" sampledSeconds="5.13" traveltime="2.57" overlapDensity="3.16" waitingTime="0.00" timeLoss="0.95" speed="9.99" speedRelative="0.72" departed="0" arrived="0" entered="2" left="2" laneChangedFrom="0" laneChangedTo="0" flow="113.49"/>
        <edge id="E5" sampledSeconds="15.22" traveltime="7.61" overlapDensity="4.16" waitingTime="0.00" timeLoss="6.07" speed="7.37" speedRelative="0.53" departed="0" arrived="0" entered="2" left="2" laneChangedFrom="0" laneChangedTo="0" flow="110.38"/>
        <edge id="E6" sampledSeconds="8.51" traveltime="4.26" overlapDensity="2.61" waitingTime="0.00" timeLoss="1.66" speed="11.01" speedRelative="0.79" departed="0" arrived="0" entered="2" left="2" laneChangedFrom="0" laneChangedTo="0" flow="103.37"/>
        <edge id="E7" sampledSeconds="21.03" traveltime="7.01" overlapDensity="11.85" waitingTime="0.00" timeLoss="15.56" speed="3.26" speedRelative="0.23" departed="1" arrived="0" entered="2" left="3" laneChangedFrom="0" laneChangedTo="0" flow="139.02"/>
        <edge id="E8" sampledSeconds="11.03" traveltime="5.51" overlapDensity="3.12" waitingTime="0.00" timeLoss="2.70" speed="11.05" speedRelative="0.80" departed="0" arrived="1" entered="2" left="1" laneChangedFrom="0" laneChangedTo="0" flow="119.23"/>
        <edge id="E9" sampledSeconds="32.33" traveltime="10.78" overlapDensity="13.15" waitingTime="0.00" timeLoss="24.08" speed="3.30" speedRelative="0.24" departed="1" arrived="0" entered="2" left="3" laneChangedFrom="0" laneChangedTo="0" flow="156.31"/>
    </interval>
    <interval begin="60.00" end="120.00" id="edgeData">
        <edge id="-E0" sampledSeconds="5.23" traveltime="5.23" overlapDensity="1.45" waitingTime="0.00" timeLoss="1.07" speed="10.30" speedRelative="0.74" departed="0" arrived="0" entered="1" left="1" laneChangedFrom="0" laneChangedTo="0" flow="53.86"/>
        <edge id="-E1" sampledSeconds="88.21" traveltime="17.64" overlapDensity="25.15" waitingTime="0.00" timeLoss="67.60" speed="3.20" speedRelative="0.23" departed="0" arrived="0" entered="5" left="5" laneChangedFrom="0" laneChangedTo="0" flow="289.78"/>
        <edge id="-E10" sampledSeconds="12.41" traveltime="12.41" overlapDensity="3.26" waitingTime="0.00" timeLoss="8.03" speed="4.42" speedRelative="0.32" departed="0" arrived="0" entered="1" left="1" laneChangedFrom="0" laneChangedTo="0" flow="51.83"/>
        <edge id="-E11" sampledSeconds="28.35" traveltime="9.45" overlapDensity="12.20" waitingTime="0.00" timeLoss="21.54" speed="3.55" speedRelative="0.26" departed="1" arrived="0" entered="2" left="3" laneChangedFrom="0" laneChangedTo="0" flow="156.05"/>
        <edge id="-E12" sampledSeconds="13.00" traveltime="13.00" overlapDensity="7.14" waitingTime="0.00" timeLoss="11.22" speed="1.85" speedRelative="0.13" departed="1" arrived="0" entered="0" left="1" laneChangedFrom="0" laneChangedTo="0" flow="47.48"/>
        <edge id="-E13" sampledSeconds="7.00" traveltime="7.00" overlapDensity="4.19" waitingTime="0.00" timeLoss="5.66" speed="3.13" speedRelative="0.23" departed="1" arrived="0" entered="0" left="1" laneChangedFrom="0" laneChangedTo="0" flow="47.23"/>
        <edge id="-E14" sampledSeconds="11.00" traveltime="11.00" overlapDensity="6.59" waitingTime="0.00" timeLoss="9.40" speed="1.82" speedRelative="0.13" departed="1" arrived="0" entered="0" left="1" laneChangedFrom="0" laneChangedTo="0" flow="43.16"/>
        <edge id="-E15" sampledSeconds="0.00" departed="0" arrived="0" entered="0" left="0" laneChangedFrom="0" laneChangedTo="0"/>
        <edge id="-E16" sampledSeconds="0.00" departed="0" arrived="0" entered="0" left="0" laneChangedFrom="0" laneChangedTo="0"/>
        <edge id="-E17" sampledSeconds="0.00" departed="0" arrived="0" entered="0" left="0" laneChangedFrom="0" laneChangedTo="0"/>
        <edge id="-E18" sampledSeconds="7.00" traveltime="7.00" overlapDensity="4.64" waitingTime="0.00" timeLoss="6.10" speed="2.09" speedRelative="0.15" departed="1" arrived="0" entered="0" left="1" laneChangedFrom="0" laneChangedTo="0" flow="34.93"/>
        <edge id="-E19" sampledSeconds="0.00" departed="0" arrived="0" entered="0" left="0" laneChangedFrom="0" laneChangedTo="0"/>
        <edge id="-E2" sampledSeconds="53.80" traveltime="7.69" overlapDensity="22.92" waitingTime="0.00" timeLoss="33.19" speed="4.92" speedRelative="0.35" departed="2" arrived="2" entered="5" left="5" laneChangedFrom="0" laneChangedTo="0" flow="392.14"/>
        <edge id="-E20" sampledSeconds="3.00" traveltime="3.00" overlapDensity="2.32" waitingTime="0.00" timeLoss="2.16" speed="4.07" speedRelative="0.29" departed="1" arrived="0" entered="0" left="1" laneChangedFrom="0" laneChangedTo="0" flow="33.91"/>
        <edge id="-E21" sampledSeconds="6.00" traveltime="6.00" overlapDensity="6.17" waitingTime="0.00" timeLoss="5.37" speed="1.69" speedRelative="0.12" departed="1" arrived="0" entered="0" left="1" laneChangedFrom="0" laneChangedTo="0" flow="37.48"/>
        <edge id="-E22" sampledSeconds="4.00" traveltime="4.00" overlapDensity="2.00" waitingTime="0.00" timeLoss="2.45" speed="4.84" speedRelative="0.35" departed="1" arrived="0" entered="0" left="1" laneChangedFrom="0" laneChangedTo="0" flow="34.85"/>
        <edge id="-E23" sampledSeconds="0.00" departed="0" arrived="0" entered="0" left="0" laneChangedFrom="0" laneChangedTo="0"/>
        <edge id="-E3" sampledSeconds="4.10" traveltime="4.10" overlapDensity="2.01" waitingTime="0.00" timeLoss="1.15" speed="9.49" speedRelative="0.68" departed="0" arrived="1" entered="1" left="0" laneChangedFrom="0" laneChangedTo="0" flow="60.00"/>
        <edge id="-E4" sampledSeconds="33.24" traveltime="5.54" overlapDensity="20.44" waitingTime="0.00" timeLoss="22.56" speed="4.68" speedRelative="0.34" departed="1" arrived="3" entered="5" left="3" laneChangedFrom="0" laneChangedTo="0" flow="325.29"/>
        <edge id="-E5" sampledSeconds="52.93" traveltime="13.23" overlapDensity="14.47" waitingTime="0.00" timeLoss="35.70" speed="4.57" speedRelative="0.33" departed="1" arrived="1" entered="3" left="3" laneChangedFrom="0" laneChangedTo="0" flow="232.94"/>
        <edge id="-E6" sampledSeconds="33.47" traveltime="16.74" overlapDensity="10.25" waitingTime="0.00" timeLoss="26.32" speed="3.11" speedRelative="0.22" departed="0" arrived="0" entered="2" left="2" laneChangedFrom="0" laneChangedTo="0" flow="114.92"/>
        <edge id="-E7" sampledSeconds="25.75" traveltime="5.15" overlapDensity="14.52" waitingTime="0.00" timeLoss="16.35" speed="5.31" speedRelative="0.38" departed="0" arrived="0" entered="5" left="5" laneChangedFrom="0" laneChangedTo="0" flow="277.41"/>
        <edge id="-E8" sampledSeconds="93.36" traveltime="18.67" overlapDensity="26.46" waitingTime="0.00" timeLoss="71.26" speed="2.97" speedRelative="0.21" departed="2" arrived="0" entered="3" left="5" laneChangedFrom="0" laneChangedTo="0" flow="283.28"/>
        <edge id="-E9" sampledSeconds="88.47" traveltime="14.74" overlapDensity="36.00" waitingTime="0.00" timeLoss="71.85" speed="2.55" speedRelative="0.18" departed="3" arrived="2" entered="3" left="4" laneChangedFrom="0" laneChangedTo="0" flow="324.15"/>
        <edge id="E0" sampledSeconds="119.61" traveltime="23.92" overlapDensity="33.23" waitingTime="0.00" timeLoss="99.33" speed="2.39" speedRelative="0.17" departed="2" arrived="1" entered="3" left="4" laneChangedFrom="0" laneChangedTo="0" flow="283.56"/>
        <edge id="E1" sampledSeconds="10.74" traveltime="5.37" overlapDensity="3.06" waitingTime="0.00" timeLoss="2.80" speed="10.80" speedRelative="0.78" departed="0" arrived="0" entered="2" left="2" laneChangedFrom="0" laneChangedTo="0" flow="119.15"/>
        <edge id="E10" sampledSeconds="25.00" traveltime="25.00" overlapDensity="6.57" waitingTime="0.00" timeLoss="20.89" speed="2.29" speedRelative="0.17" departed="1" arrived="0" entered="0" left="1" laneChangedFrom="0" laneChangedTo="0" flow="54.24"/>
        <edge id="E11" sampledSeconds="19.53" traveltime="6.51" overlapDensity="8.41" waitingTime="0.00" timeLoss="11.41" speed="5.73" speedRelative="0.41" departed="0" arrived="0" entered="3" left="3" laneChangedFrom="0" laneChangedTo="0" flow="173.59"/>
        <edge id="E12" sampledSeconds="0.00" departed="0" arrived="0" entered="0" left="0" laneChangedFrom="0" laneChangedTo="0"/>
        <edge id="E13" sampledSeconds="5.83" traveltime="2.91" overlapDensity="3.49" waitingTime="0.00" timeLoss="0.95" speed="11.28" speedRelative="0.81" departed="0" arrived="2" entered="2" left="0" laneChangedFrom="0" laneChangedTo="0" flow="120.00"/>
        <edge id="E14" sampledSeconds="2.15" traveltime="2.15" overlapDensity="1.29" waitingTime="0.00" timeLoss="0.13" speed="15.26" speedRelative="1.10" departed="0" arrived="1" entered="1" left="0" laneChangedFrom="0" laneChangedTo="0" flow="60.00"/>
        <edge id="E15" sampledSeconds="0.00" departed="0" arrived="0" entered="0" left="0" laneChangedFrom="0" laneChangedTo="0"/>
        <edge id="E16" sampledSeconds="0.00" departed="0" arrived="0" entered="0" left="0" laneChangedFrom="0" laneChangedTo="0"/>
        <edge id="E17" sampledSeconds="0.00" departed="0" arrived="0" entered="0" left="0" laneChangedFrom="0" laneChangedTo="0"/>
        <edge id="E18" sampledSeconds="2.61" traveltime="2.61" overlapDensity="1.73" waitingTime="0.00" timeLoss="0.62" speed="11.57" speedRelative="0.83" departed="0" arrived="1" entered="1" left="0" laneChangedFrom="0" laneChangedTo="0" flow="60.00"/>
        <edge id="E19" sampledSeconds="0.00" departed="0" arrived="0" entered="0" left="0" laneChangedFrom="0" laneChangedTo="0"/>
        <edge id="E2" sampledSeconds="40.87" traveltime="6.81" overlapDensity="17.41" waitingTime="0.00" timeLoss="23.10" speed="5.91" speedRelative="0.43" departed="0" arrived="3" entered="6" left="3" laneChangedFrom="0" laneChangedTo="0" flow="347.50"/>
        <edge id="E20" sampledSeconds="3.04" traveltime="3.04" overlapDensity="2.35" waitingTime="0.00" timeLoss="0.97" speed="8.31" speedRelative="0.60" departed="0" arrived="1" entered="1" left="0" laneChangedFrom="0" laneChangedTo="0" flow="60.00"/>
        <edge id="E21" sampledSeconds="0.00" departed="0" arrived="0" entered="0" left="0" laneChangedFrom="0" laneChangedTo="0"/>
        <edge id="E22" sampledSeconds="0.00" departed="0" arrived="0" entered="0" left="0" laneChangedFrom="0" laneChangedTo="0"/>
        <edge id="E23" sampledSeconds="0.00" departed="0" arrived="0" entered="0" left="0" laneChangedFrom="0" laneChangedTo="0"/>
        <edge id="E3" sampledSeconds="34.36" traveltime="6.87" overlapDensity="16.87" waitingTime="0.00" timeLoss="23.28" speed="4.50" speedRelative="0.32" departed="2" arrived="1" entered="3" left="4" laneChangedFrom="0" laneChangedTo="0" flow="272.95"/>
        <edge id="E4" sampledSeconds="34.47" traveltime="6.89" overlapDensity="21.20" waitingTime="0.00" timeLoss="25.28" speed="3.70" speedRelative="0.27" departed="2" arrived="2" entered="3" left="3" laneChangedFrom="0" laneChangedTo="0" flow="259.83"/>
        <edge id="E5" sampledSeconds="32.39" traveltime="10.80" overlapDensity="8.85" waitingTime="0.00" timeLoss="20.29" speed="5.25" speedRelative="0.38" departed="0" arrived="0" entered="3" left="3" laneChangedFrom="0" laneChangedTo="0" flow="167.43"/>
        <edge id="E6" sampledSeconds="105.82" traveltime="17.64" overlapDensity="32.41" waitingTime="0.00" timeLoss="84.04" speed="2.89" speedRelative="0.21" departed="2" arrived="0" entered="4" left="6" laneChangedFrom="0" laneChangedTo="0" flow="337.68"/>
        <edge id="E7" sampledSeconds="18.93" traveltime="9.46" overlapDensity="10.67" waitingTime="0.00" timeLoss="15.01" speed="3.02" speedRelative="0.22" departed="0" arrived="0" entered="2" left="2" laneChangedFrom="0" laneChangedTo="0" flow="115.87"/>
        <edge id="E8" sampledSeconds="56.24" traveltime="18.75" overlapDensity="15.94" waitingTime="0.00" timeLoss="44.14" speed="3.00" speedRelative="0.22" departed="2" arrived="1" entered="1" left="2" laneChangedFrom="0" laneChangedTo="0" flow="166.99"/>
        <edge id="E9" sampledSeconds="49.31" traveltime="12.33" overlapDensity="20.07" waitingTime="0.00" timeLoss="38.95" speed="2.90" speedRelative="0.21" departed="3" arrived="0" entered="1" left="4" laneChangedFrom="0" laneChangedTo="0" flow="209.74"/>
    </interval>
    <interval begin="120.00" end="180.00" id="edgeData">
        <edge id="-E0" sampledSeconds="62.86" traveltime="12.57" overlapDensity="17.47" waitingTime="0.00" timeLoss="42.23" speed="4.51" speedRelative="0.33" departed="1" arrived="0" entered="4" left="5" laneChangedFrom="0" laneChangedTo="0" flow="283.88"/>
        <edge id="-E1" sampledSeconds="54.44" traveltime="10.89" overlapDensity="15.52" waitingTime="0.00" timeLoss="33.01" speed="5.63" speedRelative="0.41" departed="0" arrived="3" entered="5" left="2" laneChangedFrom="0" laneChangedTo="0" flow="299.81"/>
        <edge id="-E10" sampledSeconds="19.79" traveltime="6.60" overlapDensity="5.20" waitingTime="0.00" timeLoss="5.82" speed="9.29" speedRelative="0.67" departed="1" arrived="1" entered="2" left="2" laneChangedFrom="0" laneChangedTo="0" flow="169.27"/>
        <edge id="-E11" sampledSeconds="9.56" traveltime="9.56" overlapDensity="4.11" waitingTime="0.00" timeLoss="6.50" speed="4.00" speedRelative="0.29" departed="0" arrived="0" entered="1" left="1" laneChangedFrom="0" laneChangedTo="0" flow="59.20"/>
        <edge id="-E12" sampledSeconds="0.00" departed="0" arrived="0" entered="0" left="0" laneChangedFrom="0" laneChangedTo="0"/>
        <edge id="-E13" sampledSeconds="23.00" traveltime="11.50" overlapDensity="13.76" waitingTime="0.00" timeLoss="19.72" speed="1.96" speedRelative="0.14" departed="2" arrived="0" entered="0" left="2" laneChangedFrom="0" laneChangedTo="0" flow="97.03"/>
        <edge id="-E14" sampledSeconds="0.00" departed="0" arrived="0" entered="0" left="0" laneChangedFrom="0" laneChangedTo="0"/>
        <edge id="-E15" sampledSeconds="5.00" traveltime="5.00" overlapDensity="1.97" waitingTime="0.00" timeLoss="3.12" speed="5.98" speedRelative="0.43" departed="1" arrived="0" entered="0" left="1" laneChangedFrom="0" laneChangedTo="0" flow="42.39"/>
        <edge id="-E16" sampledSeconds="5.00" traveltime="5.00" overlapDensity="2.34" waitingTime="0.00" timeLoss="3.34" speed="4.88" speedRelative="0.35" departed="1" arrived="0" entered="0" left="1" laneChangedFrom="0" laneChangedTo="0" flow="41.17"/>
        <edge id="-E17" sampledSeconds="0.00" departed="0" arrived="0" entered="0" left="0" laneChangedFrom="0" laneChangedTo="0"/>
        <edge id="-E18" sampledSeconds="3.00" traveltime="3.00" overlapDensity="1.99" waitingTime="0.00" timeLoss="2.02" speed="4.71" speedRelative="0.34" departed="1" arrived="0" entered="0" left="1" laneChangedFrom="0" laneChangedTo="0" flow="33.73"/>
        <edge id="-E19" sampledSeconds="7.00" traveltime="7.00" overlapDensity="6.38" waitingTime="0.00" timeLoss="6.08" speed="1.72" speedRelative="0.12" departed="1" arrived="0" entered="0" left="1" laneChangedFrom="0" laneChangedTo="0" flow="39.44"/>
        <edge id="-E2" sampledSeconds="34.08" traveltime="6.82" overlapDensity="14.52" waitingTime="0.00" timeLoss="20.73" speed="5.26" speedRelative="0.38" departed="0" arrived="0" entered="5" left="5" laneChangedFrom="0" laneChangedTo="0" flow="275.14"/>
        <edge id="-E20" sampledSeconds="9.00" traveltime="4.50" overlapDensity="6.95" waitingTime="0.00" timeLoss="7.33" speed="2.59" speedRelative="0.19" departed="2" arrived="0" entered="0" left="2" laneChangedFrom="0" laneChangedTo="0" flow="64.70"/>
        <edge id="-E21" sampledSeconds="12.00" traveltime="6.00" overlapDensity="12.34" waitingTime="0.00" timeLoss="10.62" speed="1.67" speedRelative="0.12" departed="2" arrived="0" entered="0" left="2" laneChangedFrom="0" laneChangedTo="0" flow="74.26"/>
        <edge id="-E22" sampledSeconds="0.00" departed="0" arrived="0" entered="0" left="0" laneChangedFrom="0" laneChangedTo="0"/>
        <edge id="-E23" sampledSeconds="50.00" traveltime="16.67" overlapDensity="20.85" waitingTime="0.00" timeLoss="42.68" speed="1.97" speedRelative="0.14" departed="3" arrived="0" entered="0" left="3" laneChangedFrom="0" laneChangedTo="0" flow="148.26"/>
        <edge id="-E3" sampledSeconds="6.74" traveltime="3.37" overlapDensity="3.31" waitingTime="0.00" timeLoss="2.49" speed="9.24" speedRelative="0.67" departed="0" arrived="1" entered="2" left="1" laneChangedFrom="0" laneChangedTo="0" flow="101.23"/>
        <edge id="-E4" sampledSeconds="31.43" traveltime="7.86" overlapDensity="19.33" waitingTime="0.00" timeLoss="23.19" speed="3.48" speedRelative="0.25" departed="1" arrived="2" entered="3" left="2" laneChangedFrom="0" laneChangedTo="0" flow="219.88"/>
        <edge id="-E5" sampledSeconds="49.29" traveltime="12.32" overlapDensity="13.47" waitingTime="0.00" timeLoss="31.99" speed="4.83" speedRelative="0.35" departed="1" arrived="1" entered="3" left="3" laneChangedFrom="0" laneChangedTo="0" flow="229.30"/>
        <edge id="-E6" sampledSeconds="59.59" traveltime="19.86" overlapDensity="18.25" waitingTime="0.00" timeLoss="48.49" speed="2.69" speedRelative="0.19" departed="0" arrived="0" entered="3" left="3" laneChangedFrom="0" laneChangedTo="0" flow="176.51"/>
        <edge id="-E7" sampledSeconds="19.99" traveltime="5.00" overlapDensity="11.27" waitingTime="0.00" timeLoss="12.15" speed="5.41" speedRelative="0.39" departed="0" arrived="0" entered="4" left="4" laneChangedFrom="0" laneChangedTo="0" flow="219.55"/>
        <edge id="-E8" sampledSeconds="152.74" traveltime="16.97" overlapDensity="43.29" waitingTime="0.00" timeLoss="116.46" speed="3.27" speedRelative="0.24" departed="2" arrived="0" entered="7" left="9" laneChangedFrom="0" laneChangedTo="0" flow="509.26"/>
        <edge id="-E9" sampledSeconds="95.96" traveltime="13.71" overlapDensity="39.05" waitingTime="0.00" timeLoss="77.11" speed="2.67" speedRelative="0.19" departed="4" arrived="1" entered="3" left="6" laneChangedFrom="0" laneChangedTo="0" flow="368.66"/>
        <edge id="E0" sampledSeconds="101.66" traveltime="20.33" overlapDensity="28.25" waitingTime="0.00" timeLoss="81.73" speed="2.82" speedRelative="0.20" departed="1" arrived="0" entered="4" left="5" laneChangedFrom="0" laneChangedTo="0" flow="286.67"/>
        <edge id="E1" sampledSeconds="46.40" traveltime="11.60" overlapDensity="13.23" waitingTime="0.00" timeLoss="29.16" speed="4.83" speedRelative="0.35" departed="0" arrived="0" entered="4" left="4" laneChangedFrom="0" laneChangedTo="0" flow="230.06"/>
        <edge id="E10" sampledSeconds="66.35" traveltime="22.12" overlapDensity="17.43" waitingTime="0.00" timeLoss="53.03" speed="2.81" speedRelative="0.20" departed="0" arrived="0" entered="3" left="3" laneChangedFrom="0" laneChangedTo="0" flow="176.10"/>
        <edge id="E11" sampledSeconds="13.61" traveltime="13.61" overlapDensity="5.86" waitingTime="0.00" timeLoss="11.18" speed="2.84" speedRelative="0.20" departed="0" arrived="0" entered="1" left="1" laneChangedFrom="0" laneChangedTo="0" flow="59.94"/>
        <edge id="E12" sampledSeconds="7.00" traveltime="3.50" overlapDensity="3.85" waitingTime="0.00" timeLoss="1.89" speed="10.10" speedRelative="0.73" departed="0" arrived="2" entered="2" left="0" laneChangedFrom="0" laneChangedTo="0" flow="120.00"/>