<?xml version="1.0" encoding="UTF-8"?>

<!-- generated on 2026-04-20T18:57:03.209820+09:00 by Eclipse SUMO GUI 1.26.0
<sumoConfiguration xmlns:xsi="http://www.w3.org/2001/XMLSchema-instance" xsi:noNamespaceSchemaLocation="http://sumo.dlr.de/xsd/sumoConfiguration.xsd">

    <input>
        <net-file value="map.net.xml"/>
        <route-files value="car.rou.xml"/>
        <additional-files value="edgeData.add.xml"/>
    </input>

    <output>
        <tripinfo-output value="tripinfo.xml"/>
    </output>

    <time>
        <begin value="0"/>
        <end value="500"/>
    </time>

</sumoConfiguration>
-->

<meandata xmlns:xsi="http://www.w3.org/2001/XMLSchema-instance" xsi:noNamespaceSchemaLocation="http://sumo.dlr.de/xsd/meandata_file.xsd">
    <interval begin="0.00" end="60.00" id="edgeData">
        <edge id="-E0" sampledSeconds="28.00" traveltime="28.00" overlapDensity="7.78" waitingTime="18.00" timeLoss="23.86" speed="1.92" speedRelative="0.14" departed="1" arrived="0" entered="0" left="1" laneChangedFrom="0" laneChangedTo="0" flow="53.90"/>
        <edge id="-E1" sampledSeconds="14.00" traveltime="7.00" overlapDensity="3.99" waitingTime="0.00" timeLoss="6.61" speed="6.85" speedRelative="0.49" departed="2" arrived="0" entered="0" left="2" laneChangedFrom="0" laneChangedTo="0" flow="98.39"/>
        <edge id="-E10" sampledSeconds="138.87" traveltime="46.29" overlapDensity="36.49" waitingTime="110.00" timeLoss="125.86" speed="1.27" speedRelative="0.09" departed="1" arrived="0" entered="2" left="3" laneChangedFrom="0" laneChangedTo="0" flow="167.43"/>
        <edge id="-E11" sampledSeconds="39.18" traveltime="9.79" overlapDensity="16.86" waitingTime="19.00" timeLoss="28.14" speed="3.71" speedRelative="0.27" departed="2" arrived="1" entered="2" left="3" laneChangedFrom="0" laneChangedTo="0" flow="217.43"/>
        <edge id="-E12" sampledSeconds="0.00" departed="0" arrived="0" entered="0" left="0" laneChangedFrom="0" laneChangedTo="0"/>
        <edge id="-E13" sampledSeconds="56.00" traveltime="18.67" overlapDensity="33.51" waitingTime="29.00" timeLoss="51.47" speed="1.16" speedRelative="0.08" departed="3" arrived="0" entered="0" left="3" laneChangedFrom="0" laneChangedTo="0" flow="139.61"/>
        <edge id="-E14" sampledSeconds="0.00" departed="0" arrived="0" entered="0" left="0" laneChangedFrom="0" laneChangedTo="0"/>
        <edge id="-E15" sampledSeconds="0.00" departed="0" arrived="0" entered="0" left="0" laneChangedFrom="0" laneChangedTo="0"/>
        <edge id="-E16" sampledSeconds="15.00" traveltime="15.00" overlapDensity="7.03" waitingTime="7.00" timeLoss="12.71" speed="1.96" speedRelative="0.14" departed="1" arrived="0" entered="0" left="1" laneChangedFrom="0" laneChangedTo="0" flow="49.71"/>
        <edge id="-E17" sampledSeconds="14.00" traveltime="4.67" overlapDensity="6.47" waitingTime="0.00" timeLoss="8.34" speed="5.74" speedRelative="0.41" departed="3" arrived="0" entered="0" left="3" laneChangedFrom="0" laneChangedTo="0" flow="133.74"/>
        <edge id="-E18" sampledSeconds="10.00" traveltime="10.00" overlapDensity="6.63" waitingTime="4.00" timeLoss="8.54" speed="1.90" speedRelative="0.14" departed="1" arrived="0" entered="0" left="1" laneChangedFrom="0" laneChangedTo="0" flow="45.44"/>
        <edge id="-E19" sampledSeconds="60.00" traveltime="30.00" overlapDensity="54.70" waitingTime="49.00" timeLoss="58.20" speed="0.42" speedRelative="0.03" departed="2" arrived="0" entered="0" left="2" laneChangedFrom="0" laneChangedTo="0" flow="82.21"/>
        <edge id="-E2" sampledSeconds="83.75" traveltime="27.92" overlapDensity="35.68" waitingTime="64.00" timeLoss="76.31" speed="1.28" speedRelative="0.09" departed="1" arrived="1" entered="2" left="2" laneChangedFrom="0" laneChangedTo="0" flow="163.43"/>
        <edge id="-E20" sampledSeconds="18.00" traveltime="18.00" overlapDensity="13.90" waitingTime="13.00" timeLoss="17.01" speed="0.86" speedRelative="0.06" departed="1" arrived="0" entered="0" left="1" laneChangedFrom="0" laneChangedTo="0" flow="43.04"/>
        <edge id="-E21" sampledSeconds="3.00" traveltime="3.00" overlapDensity="3.08" waitingTime="0.00" timeLoss="2.33" speed="3.30" speedRelative="0.24" departed="1" arrived="0" entered="0" left="1" laneChangedFrom="0" laneChangedTo="0" flow="36.63"/>
        <edge id="-E22" sampledSeconds="0.00" departed="0" arrived="0" entered="0" left="0" laneChangedFrom="0" laneChangedTo="0"/>
        <edge id="-E23" sampledSeconds="0.00" departed="0" arrived="0" entered="0" left="0" laneChangedFrom="0" laneChangedTo="0"/>
        <edge id="-E3" sampledSeconds="7.52" traveltime="3.76" overlapDensity="3.69" waitingTime="0.00" timeLoss="2.31" speed="10.35" speedRelative="0.75" departed="0" arrived="2" entered="2" left="0" laneChangedFrom="0" laneChangedTo="0" flow="120.00"/>
        <edge id="-E4" sampledSeconds="86.34" traveltime="43.17" overlapDensity="53.10" waitingTime="72.00" timeLoss="82.92" speed="0.50" speedRelative="0.04" departed="1" arrived="0" entered="1" left="2" laneChangedFrom="0" laneChangedTo="0" flow="96.52"/>
        <edge id="-E5" sampledSeconds="100.57" traveltime="33.52" overlapDensity="27.49" waitingTime="79.00" timeLoss="87.25" speed="1.77" speedRelative="0.13" departed="0" arrived="1" entered="3" left="2" laneChangedFrom="0" laneChangedTo="0" flow="174.34"/>
        <edge id="-E6" sampledSeconds="194.78" traveltime="27.83" overlapDensity="59.65" waitingTime="139.00" timeLoss="169.31" speed="1.80" speedRelative="0.13" departed="2" arrived="0" entered="5" left="7" laneChangedFrom="0" laneChangedTo="0" flow="387.42"/>
        <edge id="-E7" sampledSeconds="0.00" departed="0" arrived="0" entered="0" left="0" laneChangedFrom="0" laneChangedTo="0"/>
        <edge id="-E8" sampledSeconds="0.00" departed="0" arrived="0" entered="0" left="0" laneChangedFrom="0" laneChangedTo="0"/>
        <edge id="-E9" sampledSeconds="0.00" departed="0" arrived="0" entered="0" left="0" laneChangedFrom="0" laneChangedTo="0"/>
        <edge id="E0" sampledSeconds="0.00" departed="0" arrived="0" entered="0" left="0" laneChangedFrom="0" laneChangedTo="0"/>
        <edge id="E1" sampledSeconds="66.28" traveltime="33.14" overlapDensity="18.90" waitingTime="47.00" timeLoss="58.78" speed="1.67" speedRelative="0.12" departed="1" arrived="0" entered="1" left="2" laneChangedFrom="0" laneChangedTo="0" flow="113.70"/>
        <edge id="E10" sampledSeconds="0.00" departed="0" arrived="0" entered="0" left="0" laneChangedFrom="0" laneChangedTo="0"/>
        <edge id="E11" sampledSeconds="31.00" traveltime="31.00" overlapDensity="13.34" waitingTime="24.00" timeLoss="28.48" speed="1.05" speedRelative="0.08" departed="1" arrived="0" entered="0" left="1" laneChangedFrom="0" laneChangedTo="0" flow="50.55"/>
        <edge id="E12" sampledSeconds="3.50" traveltime="3.50" overlapDensity="1.92" waitingTime="0.00" timeLoss="1.04" speed="10.04" speedRelative="0.72" departed="0" arrived="1" entered="1" left="0" laneChangedFrom="0" laneChangedTo="0" flow="60.00"/>
        <edge id="E13" sampledSeconds="0.00" departed="0" arrived="0" entered="0" left="0" laneChangedFrom="0" laneChangedTo="0"/>
        <edge id="E14" sampledSeconds="2.33" traveltime="2.33" overlapDensity="1.40" waitingTime="0.00" timeLoss="0.07" speed="14.06" speedRelative="1.01" departed="0" arrived="1" entered="1" left="0" laneChangedFrom="0" laneChangedTo="0" flow="60.00"/>
        <edge id="E15" sampledSeconds="0.00" departed="0" arrived="0" entered="0" left="0" laneChangedFrom="0" laneChangedTo="0"/>
        <edge id="E16" sampledSeconds="0.00" departed="0" arrived="0" entered="0" left="0" laneChangedFrom="0" laneChangedTo="0"/>
        <edge id="E17" sampledSeconds="0.00" departed="0" arrived="0" entered="0" left="0" laneChangedFrom="0" laneChangedTo="0"/>
        <edge id="E18" sampledSeconds="0.00" departed="0" arrived="0" entered="0" left="0" laneChangedFrom="0" laneChangedTo="0"/>
        <edge id="E19" sampledSeconds="0.00" departed="0" arrived="0" entered="0" left="0" laneChangedFrom="0" laneChangedTo="0"/>
        <edge id="E2" sampledSeconds="0.00" departed="0" arrived="0" entered="0" left="0" laneChangedFrom="0" laneChangedTo="0"/>
        <edge id="E20" sampledSeconds="0.00" departed="0" arrived="0" entered="0" left="0" laneChangedFrom="0" laneChangedTo="0"/>
        <edge id="E21" sampledSeconds="0.00" departed="0" arrived="0" entered="0" left="0" laneChangedFrom="0" laneChangedTo="0"/>
        <edge id="E22" sampledSeconds="3.53" traveltime="3.53" overlapDensity="1.76" waitingTime="0.00" timeLoss="0.59" speed="10.87" speedRelative="0.78" departed="0" arrived="1" entered="1" left="0" laneChangedFrom="0" laneChangedTo="0" flow="60.00"/>
        <edge id="E23" sampledSeconds="0.00" departed="0" arrived="0" entered="0" left="0" laneChangedFrom="0" laneChangedTo="0"/>
        <edge id="E3" sampledSeconds="0.00" departed="0" arrived="0" entered="0" left="0" laneChangedFrom="0" laneChangedTo="0"/>
        <edge id="E4" sampledSeconds="39.00" traveltime="19.50" overlapDensity="23.99" waitingTime="24.00" timeLoss="35.86" speed="1.05" speedRelative="0.08" departed="2" arrived="0" entered="0" left="2" laneChangedFrom="0" laneChangedTo="0" flow="91.05"/>
        <edge id="E5" sampledSeconds="148.38" traveltime="37.10" overlapDensity="40.55" waitingTime="102.00" timeLoss="130.83" speed="1.54" speedRelative="0.11" departed="1" arrived="0" entered="3" left="4" laneChangedFrom="0" laneChangedTo="0" flow="224.81"/>
        <edge id="E6" sampledSeconds="42.13" traveltime="42.13" overlapDensity="12.90" waitingTime="34.00" timeLoss="38.32" speed="1.27" speedRelative="0.09" departed="0" arrived="0" entered="1" left="1" laneChangedFrom="0" laneChangedTo="0" flow="58.90"/>
        <edge id="E7" sampledSeconds="7.92" traveltime="3.96" overlapDensity="4.47" waitingTime="0.00" timeLoss="4.91" speed="5.82" speedRelative="0.42" departed="1" arrived="0" entered="1" left="2" laneChangedFrom="0" laneChangedTo="0" flow="93.69"/>
        <edge id="E8" sampledSeconds="84.86" traveltime="28.29" overlapDensity="24.05" waitingTime="58.00" timeLoss="72.35" speed="1.90" speedRelative="0.14" departed="2" arrived="0" entered="1" left="3" laneChangedFrom="0" laneChangedTo="0" flow="164.90"/>
        <edge id="E9" sampledSeconds="83.52" traveltime="41.76" overlapDensity="33.99" waitingTime="67.00" timeLoss="77.21" speed="0.93" speedRelative="0.07" departed="0" arrived="0" entered="2" left="2" laneChangedFrom="0" laneChangedTo="0" flow="113.37"/>
    </interval>
    <interval begin="60.00" end="120.00" id="edgeData">
        <edge id="-E0" sampledSeconds="64.85" traveltime="16.21" overlapDensity="18.02" waitingTime="36.00" timeLoss="48.19" speed="3.61" speedRelative="0.26" departed="1" arrived="1" entered="3" left="3" laneChangedFrom="0" laneChangedTo="0" flow="229.21"/>
        <edge id="-E1" sampledSeconds="207.87" traveltime="34.64" overlapDensity="59.27" waitingTime="143.00" timeLoss="185.69" speed="1.58" speedRelative="0.11" departed="1" arrived="0" entered="5" left="6" laneChangedFrom="0" laneChangedTo="0" flow="336.19"/>
        <edge id="-E10" sampledSeconds="8.00" traveltime="8.00" overlapDensity="2.10" waitingTime="0.00" timeLoss="4.36" speed="7.22" speedRelative="0.52" departed="1" arrived="0" entered="0" left="1" laneChangedFrom="0" laneChangedTo="0" flow="54.63"/>
        <edge id="-E11" sampledSeconds="56.88" traveltime="28.44" overlapDensity="24.48" waitingTime="39.00" timeLoss="52.36" speed="1.21" speedRelative="0.09" departed="1" arrived="0" entered="1" left="2" laneChangedFrom="0" laneChangedTo="0" flow="107.02"/>
        <edge id="-E12" sampledSeconds="15.00" traveltime="15.00" overlapDensity="8.24" waitingTime="9.00" timeLoss="13.52" speed="1.62" speedRelative="0.12" departed="1" arrived="0" entered="0" left="1" laneChangedFrom="0" laneChangedTo="0" flow="47.93"/>
        <edge id="-E13" sampledSeconds="0.00" departed="0" arrived="0" entered="0" left="0" laneChangedFrom="0" laneChangedTo="0"/>
        <edge id="-E14" sampledSeconds="81.00" traveltime="27.00" overlapDensity="48.54" waitingTime="64.00" timeLoss="76.74" speed="0.76" speedRelative="0.05" departed="3" arrived="0" entered="0" left="3" laneChangedFrom="0" laneChangedTo="0" flow="133.40"/>
        <edge id="-E15" sampledSeconds="6.00" traveltime="6.00" overlapDensity="2.36" waitingTime="0.00" timeLoss="3.09" speed="5.91" speedRelative="0.43" departed="1" arrived="0" entered="0" left="1" laneChangedFrom="0" laneChangedTo="0" flow="50.25"/>
        <edge id="-E16" sampledSeconds="44.00" traveltime="14.67" overlapDensity="20.62" waitingTime="27.00" timeLoss="37.92" speed="1.91" speedRelative="0.14" departed="3" arrived="0" entered="0" left="3" laneChangedFrom="0" laneChangedTo="0" flow="141.51"/>
        <edge id="-E17" sampledSeconds="5.00" traveltime="5.00" overlapDensity="2.31" waitingTime="0.00" timeLoss="2.55" speed="6.12" speedRelative="0.44" departed="1" arrived="0" entered="0" left="1" laneChangedFrom="0" laneChangedTo="0" flow="50.94"/>
        <edge id="-E18" sampledSeconds="56.00" traveltime="18.67" overlapDensity="37.11" waitingTime="39.00" timeLoss="52.26" speed="0.98" speedRelative="0.07" departed="3" arrived="0" entered="0" left="3" laneChangedFrom="0" laneChangedTo="0" flow="130.84"/>
        <edge id="-E19" sampledSeconds="75.00" traveltime="37.50" overlapDensity="68.38" waitingTime="65.00" timeLoss="73.46" speed="0.29" speedRelative="0.02" departed="2" arrived="0" entered="0" left="2" laneChangedFrom="0" laneChangedTo="0" flow="70.32"/>
        <edge id="-E2" sampledSeconds="27.99" traveltime="7.00" overlapDensity="11.93" waitingTime="7.00" timeLoss="16.43" speed="5.49" speedRelative="0.40" departed="0" arrived="1" entered="4" left="3" laneChangedFrom="0" laneChangedTo="0" flow="227.93"/>
        <edge id="-E20" sampledSeconds="0.00" departed="0" arrived="0" entered="0" left="0" laneChangedFrom="0" laneChangedTo="0"/>
        <edge id="-E21" sampledSeconds="0.00" departed="0" arrived="0" entered="0" left="0" laneChangedFrom="0" laneChangedTo="0"/>
        <edge id="-E22" sampledSeconds="42.00" traveltime="42.00" overlapDensity="20.98" waitingTime="35.00" timeLoss="40.03" speed="0.65" speedRelative="0.05" departed="1" arrived="0" entered="0" left="1" laneChangedFrom="0" laneChangedTo="0" flow="49.03"/>
        <edge id="-E23" sampledSeconds="0.00" departed="0" arrived="0" entered="0" left="0" laneChangedFrom="0" laneChangedTo="0"/>
        <edge id="-E3" sampledSeconds="12.19" traveltime="3.05" overlapDensity="5.98" waitingTime="0.00" timeLoss="3.74" speed="9.70" speedRelative="0.70" departed="0" arrived="0" entered="4" left="4" laneChangedFrom="0" laneChangedTo="0" flow="208.97"/>
        <edge id="-E4" sampledSeconds="46.18" traveltime="6.60" overlapDensity="28.40" waitingTime="23.00" timeLoss="34.33" speed="3.58" speedRelative="0.26" departed="0" arrived="1" entered="7" left="6" laneChangedFrom="0" laneChangedTo="0" flow="355.00"/>
        <edge id="-E5" sampledSeconds="26.79" traveltime="6.70" overlapDensity="7.32" waitingTime="0.00" timeLoss="9.76" speed="8.74" speedRelative="0.63" departed="0" arrived="0" entered="4" left="4" laneChangedFrom="0" laneChangedTo="0" flow="230.30"/>
        <edge id="-E6" sampledSeconds="40.85" traveltime="20.43" overlapDensity="12.51" waitingTime="26.00" timeLoss="34.08" speed="2.33" speedRelative="0.17" departed="0" arrived="0" entered="2" left="2" laneChangedFrom="0" laneChangedTo="0" flow="104.85"/>
        <edge id="-E7" sampledSeconds="14.56" traveltime="4.85" overlapDensity="8.21" waitingTime="2.00" timeLoss="9.26" speed="5.23" speedRelative="0.38" departed="1" arrived="0" entered="2" left="3" laneChangedFrom="0" laneChangedTo="0" flow="154.41"/>
        <edge id="-E8" sampledSeconds="34.76" traveltime="6.95" overlapDensity="9.85" waitingTime="2.00" timeLoss="12.47" speed="8.39" speedRelative="0.60" departed="1" arrived="2" entered="4" left="3" laneChangedFrom="0" laneChangedTo="0" flow="287.33"/>
        <edge id="-E9" sampledSeconds="26.20" traveltime="4.37" overlapDensity="10.66" waitingTime="0.00" timeLoss="8.92" speed="8.70" speedRelative="0.63" departed="1" arrived="1" entered="5" left="5" laneChangedFrom="0" laneChangedTo="0" flow="328.98"/>
        <edge id="E0" sampledSeconds="183.65" traveltime="36.73" overlapDensity="51.03" waitingTime="127.00" timeLoss="161.78" speed="1.58" speedRelative="0.11" departed="0" arrived="0" entered="5" left="5" laneChangedFrom="0" laneChangedTo="0" flow="290.43"/>
        <edge id="E1" sampledSeconds="154.26" traveltime="38.56" overlapDensity="43.98" waitingTime="112.00" timeLoss="139.23" speed="1.41" speedRelative="0.10" departed="1" arrived="0" entered="3" left="4" laneChangedFrom="0" laneChangedTo="0" flow="223.65"/>
        <edge id="E10" sampledSeconds="26.39" traveltime="13.20" overlapDensity="6.93" waitingTime="9.00" timeLoss="17.20" speed="4.56" speedRelative="0.33" departed="1" arrived="0" entered="1" left="2" laneChangedFrom="0" laneChangedTo="0" flow="113.94"/>
        <edge id="E11" sampledSeconds="54.25" traveltime="10.85" overlapDensity="23.35" waitingTime="23.00" timeLoss="41.61" speed="3.15" speedRelative="0.23" departed="1" arrived="1" entered="4" left="4" laneChangedFrom="0" laneChangedTo="0" flow="257.18"/>
        <edge id="E12" sampledSeconds="5.82" traveltime="2.91" overlapDensity="3.20" waitingTime="0.00" timeLoss="0.53" speed="12.15" speedRelative="0.87" departed="0" arrived="2" entered="2" left="0" laneChangedFrom="0" laneChangedTo="0" flow="120.00"/>
        <edge id="E13" sampledSeconds="2.33" traveltime="2.33" overlapDensity="1.39" waitingTime="0.00" timeLoss="0.18" speed="12.19" speedRelative="0.88" departed="0" arrived="1" entered="1" left="0" laneChangedFrom="0" laneChangedTo="0" flow="60.00"/>
        <edge id="E14" sampledSeconds="0.00" departed="0" arrived="0" entered="0" left="0" laneChangedFrom="0" laneChangedTo="0"/>
        <edge id="E15" sampledSeconds="0.00" departed="0" arrived="0" entered="0" left="0" laneChangedFrom="0" laneChangedTo="0"/>
        <edge id="E16" sampledSeconds="0.00" departed="0" arrived="0" entered="0" left="0" laneChangedFrom="0" laneChangedTo="0"/>
        <edge id="E17" sampledSeconds="0.00" departed="0" arrived="0" entered="0" left="0" laneChangedFrom="0" laneChangedTo="0"/>
        <edge id="E18" sampledSeconds="0.00" departed="0" arrived="0" entered="0" left="0" laneChangedFrom="0" laneChangedTo="0"/>
        <edge id="E19" sampledSeconds="0.00" departed="0" arrived="0" entered="0" left="0" laneChangedFrom="0" laneChangedTo="0"/>
        <edge id="E2" sampledSeconds="52.70" traveltime="17.57" overlapDensity="22.45" waitingTime="37.00" timeLoss="44.34" speed="2.02" speedRelative="0.15" departed="0" arrived="0" entered="3" left="3" laneChangedFrom="0" laneChangedTo="0" flow="163.48"/>
        <edge id="E20" sampledSeconds="3.06" traveltime="3.06" overlapDensity="2.36" waitingTime="0.00" timeLoss="1.16" speed="8.70" speedRelative="0.63" departed="0" arrived="1" entered="1" left="0" laneChangedFrom="0" laneChangedTo="0" flow="60.00"/>
        <edge id="E21" sampledSeconds="0.00" departed="0" arrived="0" entered="0" left="0" laneChangedFrom="0" laneChangedTo="0"/>
        <edge id="E22" sampledSeconds="0.00" departed="0" arrived="0" entered="0" left="0" laneChangedFrom="0" laneChangedTo="0"/>
        <edge id="E23" sampledSeconds="0.00" departed="0" arrived="0" entered="0" left="0" laneChangedFrom="0" laneChangedTo="0"/>
        <edge id="E3" sampledSeconds="5.89" traveltime="2.95" overlapDensity="2.89" waitingTime="0.00" timeLoss="1.11" speed="10.97" speedRelative="0.79" departed="0" arrived="1" entered="2" left="1" laneChangedFrom="0" laneChangedTo="0" flow="110.29"/>
        <edge id="E4" sampledSeconds="44.21" traveltime="22.10" overlapDensity="27.19" waitingTime="36.00" timeLoss="40.53" speed="1.07" speedRelative="0.08" departed="0" arrived="0" entered="2" left="2" laneChangedFrom="0" laneChangedTo="0" flow="104.94"/>
        <edge id="E5" sampledSeconds="101.47" traveltime="33.82" overlapDensity="27.73" waitingTime="43.00" timeLoss="88.61" speed="1.73" speedRelative="0.12" departed="2" arrived="1" entered="1" left="2" laneChangedFrom="0" laneChangedTo="0" flow="167.93"/>
        <edge id="E6" sampledSeconds="20.70" traveltime="6.90" overlapDensity="6.34" waitingTime="3.00" timeLoss="9.36" speed="7.60" speedRelative="0.55" departed="0" arrived="0" entered="3" left="3" laneChangedFrom="0" laneChangedTo="0" flow="173.34"/>
        <edge id="E7" sampledSeconds="107.28" traveltime="35.76" overlapDensity="60.49" waitingTime="90.00" timeLoss="100.85" speed="0.78" speedRelative="0.06" departed="0" arrived="0" entered="3" left="3" laneChangedFrom="0" laneChangedTo="0" flow="169.15"/>
        <edge id="E8" sampledSeconds="48.12" traveltime="24.06" overlapDensity="13.64" waitingTime="33.00" timeLoss="40.91" speed="2.27" speedRelative="0.16" departed="1" arrived="0" entered="1" left="2" laneChangedFrom="0" laneChangedTo="0" flow="111.22"/>
        <edge id="E9" sampledSeconds="54.49" traveltime="18.16" overlapDensity="22.17" waitingTime="28.00" timeLoss="47.01" speed="1.91" speedRelative="0.14" departed="2" arrived="0" entered="1" left="3" laneChangedFrom="0" laneChangedTo="0" flow="152.60"/>
    </interval>
    <interval begin="120.00" end="180.00" id="edgeData">
        <edge id="-E0" sampledSeconds="79.06" traveltime="26.35" overlapDensity="21.97" waitingTime="52.00" timeLoss="66.57" speed="2.21" speedRelative="0.16" departed="0" arrived="0" entered="3" left="3" laneChangedFrom="0" laneChangedTo="0" flow="175.10"/>
        <edge id="-E1" sampledSeconds="50.12" traveltime="16.71" overlapDensity="14.29" waitingTime="22.00" timeLoss="38.89" speed="2.97" speedRelative="0.21" departed="1" arrived="0" entered="2" left="3" laneChangedFrom="0" laneChangedTo="0" flow="152.88"/>
        <edge id="-E10" sampledSeconds="143.97" traveltime="35.99" overlapDensity="37.83" waitingTime="101.00" timeLoss="125.92" speed="1.81" speedRelative="0.13" departed="0" arrived="3" entered="4" left="1" laneChangedFrom="0" laneChangedTo="0" flow="239.05"/>
        <edge id="-E11" sampledSeconds="64.28" traveltime="16.07" overlapDensity="27.67" waitingTime="23.00" timeLoss="53.51" speed="2.32" speedRelative="0.17" departed="0" arrived="1" entered="4" left="3" laneChangedFrom="0" laneChangedTo="0" flow="230.18"/>
        <edge id="-E12" sampledSeconds="13.00" traveltime="13.00" overlapDensity="7.14" waitingTime="5.00" timeLoss="11.20" speed="1.86" speedRelative="0.13" departed="1" arrived="0" entered="0" left="1" laneChangedFrom="0" laneChangedTo="0" flow="47.93"/>
        <edge id="-E13" sampledSeconds="4.00" traveltime="4.00" overlapDensity="2.39" waitingTime="0.00" timeLoss="2.48" speed="5.04" speedRelative="0.36" departed="1" arrived="0" entered="0" left="1" laneChangedFrom="0" laneChangedTo="0" flow="43.43"/>
        <edge id="-E14" sampledSeconds="8.00" traveltime="8.00" overlapDensity="4.79" waitingTime="1.00" timeLoss="6.41" speed="2.50" speedRelative="0.18" departed="1" arrived="0" entered="0" left="1" laneChangedFrom="0" laneChangedTo="0" flow="43.10"/>
        <edge id="-E15" sampledSeconds="0.00" departed="0" arrived="0" entered="0" left="0" laneChangedFrom="0" laneChangedTo="0"/>
        <edge id="-E16" sampledSeconds="5.00" traveltime="5.00" overlapDensity="2.34" waitingTime="0.00" timeLoss="3.14" speed="5.24" speedRelative="0.38" departed="1" arrived="0" entered="0" left="1" laneChangedFrom="0" laneChangedTo="0" flow="44.24"/>
        <edge id="-E17" sampledSeconds="56.00" traveltime="28.00" overlapDensity="25.90" waitingTime="43.00" timeLoss="51.64" speed="1.05" speedRelative="0.08" departed="2" arrived="0" entered="0" left="2" laneChangedFrom="0" laneChangedTo="0" flow="98.25"/>
        <edge id="-E18" sampledSeconds="0.00" departed="0" arrived="0" entered="0" left="0" laneChangedFrom="0" laneChangedTo="0"/>
        <edge id="-E19" sampledSeconds="3.00" traveltime="3.00" overlapDensity="2.74" waitingTime="0.00" timeLoss="2.26" speed="3.44" speedRelative="0.25" departed="1" arrived="0" entered="0" left="1" laneChangedFrom="0" laneChangedTo="0" flow="33.87"/>
        <edge id="-E2" sampledSeconds="53.36" traveltime="17.79" overlapDensity="22.73" waitingTime="29.00" timeLoss="46.72" speed="1.88" speedRelative="0.14" departed="2" arrived="0" entered="1" left="3" laneChangedFrom="0" laneChangedTo="0" flow="153.72"/>
        <edge id="-E20" sampledSeconds="7.00" traveltime="3.50" overlapDensity="5.40" waitingTime="0.00" timeLoss="4.95" speed="3.82" speedRelative="0.28" departed="2" arrived="0" entered="0" left="2" laneChangedFrom="0" laneChangedTo="0" flow="74.39"/>
        <edge id="-E21" sampledSeconds="0.00" departed="0" arrived="0" entered="0" left="0" laneChangedFrom="0" laneChangedTo="0"/>
        <edge id="-E22" sampledSeconds="56.00" traveltime="28.00" overlapDensity="27.98" waitingTime="43.00" timeLoss="52.28" speed="0.95" speedRelative="0.07" departed="2" arrived="0" entered="0" left="2" laneChangedFrom="0" laneChangedTo="0" flow="95.76"/>
        <edge id="-E23" sampledSeconds="56.00" traveltime="28.00" overlapDensity="23.36" waitingTime="42.00" timeLoss="51.09" speed="1.20" speedRelative="0.09" departed="2" arrived="0" entered="0" left="2" laneChangedFrom="0" laneChangedTo="0" flow="101.22"/>
        <edge id="-E3" sampledSeconds="83.92" traveltime="41.96" overlapDensity="41.21" waitingTime="70.00" timeLoss="79.45" speed="0.75" speedRelative="0.05" departed="0" arrived="0" entered="2" left="2" laneChangedFrom="0" laneChangedTo="0" flow="110.79"/>
        <edge id="-E4" sampledSeconds="84.17" traveltime="42.09" overlapDensity="51.77" waitingTime="73.00" timeLoss="80.61" speed="0.59" speedRelative="0.04" departed="0" arrived="0" entered="2" left="2" laneChangedFrom="0" laneChangedTo="0" flow="109.46"/>
        <edge id="-E5" sampledSeconds="92.73" traveltime="13.25" overlapDensity="25.35" waitingTime="40.00" timeLoss="61.60" speed="4.51" speedRelative="0.32" departed="0" arrived="2" entered="7" left="5" laneChangedFrom="0" laneChangedTo="0" flow="401.67"/>
        <edge id="-E6" sampledSeconds="335.30" traveltime="41.91" overlapDensity="102.69" waitingTime="241.00" timeLoss="304.57" speed="1.30" speedRelative="0.09" departed="0" arrived="3" entered="8" left="5" laneChangedFrom="0" laneChangedTo="0" flow="469.46"/>
        <edge id="-E7" sampledSeconds="10.68" traveltime="3.56" overlapDensity="6.02" waitingTime="0.00" timeLoss="3.73" speed="8.48" speedRelative="0.61" departed="1" arrived="2" entered="2" left="1" laneChangedFrom="0" laneChangedTo="0" flow="166.60"/>
        <edge id="-E8" sampledSeconds="63.75" traveltime="21.25" overlapDensity="18.07" waitingTime="36.00" timeLoss="52.36" speed="2.53" speedRelative="0.18" departed="2" arrived="0" entered="1" left="3" laneChangedFrom="0" laneChangedTo="0" flow="164.35"/>
        <edge id="-E9" sampledSeconds="197.87" traveltime="39.57" overlapDensity="80.51" waitingTime="153.00" timeLoss="183.73" speed="0.98" speedRelative="0.07" departed="0" arrived="0" entered="5" left="5" laneChangedFrom="0" laneChangedTo="0" flow="283.30"/>
        <edge id="E0" sampledSeconds="71.78" traveltime="23.93" overlapDensity="19.94" waitingTime="34.00" timeLoss="59.76" speed="2.38" speedRelative="0.17" departed="0" arrived="0" entered="3" left="3" laneChangedFrom="0" laneChangedTo="0" flow="170.64"/>
        <edge id="E1" sampledSeconds="67.95" traveltime="13.59" overlapDensity="19.38" waitingTime="15.00" timeLoss="47.90" speed="4.08" speedRelative="0.29" departed="1" arrived="0" entered="4" left="5" laneChangedFrom="0" laneChangedTo="0" flow="284.47"/>
        <edge id="E10" sampledSeconds="54.96" traveltime="18.32" overlapDensity="14.44" waitingTime="26.00" timeLoss="42.02" speed="3.20" speedRelative="0.23" departed="2" arrived="0" entered="1" left="3" laneChangedFrom="0" laneChangedTo="0" flow="166.57"/>
        <edge id="E11" sampledSeconds="105.94" traveltime="35.31" overlapDensity="45.60" waitingTime="83.00" timeLoss="98.78" speed="0.98" speedRelative="0.07" departed="1" arrived="0" entered="2" left="3" laneChangedFrom="0" laneChangedTo="0" flow="161.35"/>
        <edge id="E12" sampledSeconds="0.00" departed="0" arrived="0" entered="0" left="0" laneChangedFrom="0" laneChangedTo="0"/>
        <edge id="E13" sampledSeconds="5.25" traveltime="2.63" overlapDensity="3.14" waitingTime="0.00" timeLoss="0.53" speed="12.36" speedRelative="0.89" departed="0" arrived="2" entered="2" left="0" laneChangedFrom="0" laneChangedTo="0" flow="120.00"/>
        <edge id="E14" sampledSeconds="0.00" departed="0" arrived="0" entered="0" left="0" laneChangedFrom="0" laneChangedTo="0"/>
        <edge id="E15" sampledSeconds="9.69" traveltime="4.85" overlapDensity="3.82" waitingTime="0.00" timeLoss="2.59" speed="9.77" speedRelative="0.70" departed="0" arrived="2" entered="2" left="0" laneChangedFrom="0" laneChangedTo="0" flow="120.00"/>
        <edge id="E16" sampledSeconds="0.00" departed="0" arrived="0" entered="0" left="0" laneChangedFrom="0" laneChangedTo="0"/>
        <edge id="E17" sampledSeconds="4.50" traveltime="4.50" overlapDensity="2.08" waitingTime="0.00" timeLoss="1.13" speed="9.12" speedRelative="0.66" departed="0" arrived="1" entered="1" left="0" laneChangedFrom="0" laneChangedTo="0" flow="60.00"/>
        <edge id="E18" sampledSeconds="2.84" traveltime="2.84" overlapDensity="1.89" waitingTime="0.00" timeLoss="0.43" speed="10.60" speedRelative="0.76" departed="0" arrived="1" entered="1" left="0" laneChangedFrom="0" laneChangedTo="0" flow="60.00"/>
        <edge id="E19" sampledSeconds="2.11" traveltime="2.11" overlapDensity="1.92" waitingTime="0.00" timeLoss="0.15" speed="11.04" speedRelative="0.79" departed="0" arrived="1" entered="1" left="0" laneChangedFrom="0" laneChangedTo="0" flow="60.00"/>