<?xml version="1.0" encoding="UTF-8"?>

<!-- generated on 2026-06-19T11:21:20.188873+09:00 by Eclipse SUMO GUI 1.26.0
<sumoConfiguration xmlns:xsi="http://www.w3.org/2001/XMLSchema-instance" xsi:noNamespaceSchemaLocation="http://sumo.dlr.de/xsd/sumoConfiguration.xsd">

    <input>
        <net-file value="C:\Users\GLAB-PC002\Desktop\sumo_project\map.net.xml"/>
        <route-files value="C:\Users\GLAB-PC002\Desktop\sumo_project\car.rou.xml"/>
        <additional-files value="C:\Users\GLAB-PC002\Desktop\sumo_project\edgeData.add.xml"/>
    </input>

    <output>
        <tripinfo-output value="C:\Users\GLAB-PC002\Desktop\sumo_project\tripinfo.xml"/>
    </output>

    <time>
        <begin value="0"/>
        <end value="500"/>
    </time>

    <traci_server>
        <remote-port value="62497"/>
    </traci_server>

</sumoConfiguration>
-->

<meandata xmlns:xsi="http://www.w3.org/2001/XMLSchema-instance" xsi:noNamespaceSchemaLocation="http://sumo.dlr.de/xsd/meandata_file.xsd">
    <interval begin="0.00" end="60.00" id="edgeData">
        <edge id="-E0" sampledSeconds="7.00" traveltime="7.00" overlapDensity="1.95" waitingTime="0.00" timeLoss="3.16" speed="7.75" speedRelative="0.56" departed="1" arrived="0" entered="0" left="1" laneChangedFrom="0" laneChangedTo="0" flow="54.30"/>
        <edge id="-E1" sampledSeconds="14.65" traveltime="14.65" overlapDensity="4.18" waitingTime="7.00" timeLoss="10.24" speed="3.92" speedRelative="0.28" departed="0" arrived="0" entered="1" left="1" laneChangedFrom="0" laneChangedTo="0" flow="58.97"/>
        <edge id="-E10" sampledSeconds="11.03" traveltime="5.52" overlapDensity="2.90" waitingTime="0.00" timeLoss="1.49" speed="11.69" speedRelative="0.84" departed="0" arrived="1" entered="2" left="1" laneChangedFrom="0" laneChangedTo="0" flow="117.26"/>
        <edge id="-E11" sampledSeconds="7.68" traveltime="3.84" overlapDensity="3.31" waitingTime="0.00" timeLoss="2.33" speed="10.40" speedRelative="0.75" departed="0" arrived="1" entered="2" left="1" laneChangedFrom="0" laneChangedTo="0" flow="119.16"/>
        <edge id="-E12" sampledSeconds="4.00" traveltime="4.00" overlapDensity="2.20" waitingTime="0.00" timeLoss="2.25" speed="5.34" speedRelative="0.38" departed="1" arrived="0" entered="0" left="1" laneChangedFrom="0" laneChangedTo="0" flow="42.22"/>
        <edge id="-E13" sampledSeconds="36.00" traveltime="36.00" overlapDensity="21.54" waitingTime="29.00" timeLoss="34.48" speed="0.60" speedRelative="0.04" departed="1" arrived="0" entered="0" left="1" laneChangedFrom="0" laneChangedTo="0" flow="46.86"/>
        <edge id="-E14" sampledSeconds="4.00" traveltime="4.00" overlapDensity="2.40" waitingTime="0.00" timeLoss="2.35" speed="5.25" speedRelative="0.38" departed="1" arrived="0" entered="0" left="1" laneChangedFrom="0" laneChangedTo="0" flow="45.33"/>
        <edge id="-E15" sampledSeconds="43.00" traveltime="14.33" overlapDensity="16.93" waitingTime="26.00" timeLoss="36.13" speed="2.30" speedRelative="0.17" departed="3" arrived="0" entered="0" left="3" laneChangedFrom="0" laneChangedTo="0" flow="140.07"/>
        <edge id="-E16" sampledSeconds="22.00" traveltime="22.00" overlapDensity="10.31" waitingTime="14.00" timeLoss="19.93" speed="1.34" speedRelative="0.10" departed="1" arrived="0" entered="0" left="1" laneChangedFrom="0" laneChangedTo="0" flow="49.71"/>
        <edge id="-E17" sampledSeconds="0.00" departed="0" arrived="0" entered="0" left="0" laneChangedFrom="0" laneChangedTo="0"/>
        <edge id="-E18" sampledSeconds="14.00" traveltime="14.00" overlapDensity="9.28" waitingTime="8.00" timeLoss="12.52" speed="1.36" speedRelative="0.10" departed="1" arrived="0" entered="0" left="1" laneChangedFrom="0" laneChangedTo="0" flow="45.44"/>
        <edge id="-E19" sampledSeconds="71.00" traveltime="17.75" overlapDensity="64.73" waitingTime="56.00" timeLoss="68.27" speed="0.56" speedRelative="0.04" departed="4" arrived="0" entered="0" left="4" laneChangedFrom="0" laneChangedTo="0" flow="130.73"/>
        <edge id="-E2" sampledSeconds="144.55" traveltime="36.14" overlapDensity="61.59" waitingTime="116.00" timeLoss="135.08" speed="0.92" speedRelative="0.07" departed="2" arrived="0" entered="2" left="4" laneChangedFrom="0" laneChangedTo="0" flow="203.22"/>
        <edge id="-E20" sampledSeconds="4.00" traveltime="4.00" overlapDensity="3.09" waitingTime="0.00" timeLoss="2.86" speed="4.01" speedRelative="0.29" departed="1" arrived="0" entered="0" left="1" laneChangedFrom="0" laneChangedTo="0" flow="44.56"/>
        <edge id="-E21" sampledSeconds="0.00" departed="0" arrived="0" entered="0" left="0" laneChangedFrom="0" laneChangedTo="0"/>
        <edge id="-E22" sampledSeconds="46.00" traveltime="23.00" overlapDensity="22.98" waitingTime="35.00" timeLoss="41.89" speed="1.10" speedRelative="0.08" departed="2" arrived="0" entered="0" left="2" laneChangedFrom="0" laneChangedTo="0" flow="90.72"/>
        <edge id="-E23" sampledSeconds="0.00" departed="0" arrived="0" entered="0" left="0" laneChangedFrom="0" laneChangedTo="0"/>
        <edge id="-E3" sampledSeconds="42.57" traveltime="14.19" overlapDensity="20.90" waitingTime="30.00" timeLoss="36.27" speed="2.19" speedRelative="0.16" departed="0" arrived="1" entered="3" left="2" laneChangedFrom="0" laneChangedTo="0" flow="155.89"/>
        <edge id="-E4" sampledSeconds="41.44" traveltime="41.44" overlapDensity="25.49" waitingTime="36.00" timeLoss="39.42" speed="0.63" speedRelative="0.05" departed="0" arrived="0" entered="1" left="1" laneChangedFrom="0" laneChangedTo="0" flow="57.78"/>
        <edge id="-E5" sampledSeconds="79.05" traveltime="39.52" overlapDensity="21.60" waitingTime="60.00" timeLoss="70.41" speed="1.41" speedRelative="0.10" departed="1" arrived="0" entered="1" left="2" laneChangedFrom="0" laneChangedTo="0" flow="109.94"/>
        <edge id="-E6" sampledSeconds="56.08" traveltime="18.69" overlapDensity="17.18" waitingTime="35.00" timeLoss="44.31" speed="2.71" speedRelative="0.20" departed="2" arrived="1" entered="1" left="2" laneChangedFrom="0" laneChangedTo="0" flow="166.65"/>
        <edge id="-E7" sampledSeconds="2.77" traveltime="2.77" overlapDensity="1.56" waitingTime="0.00" timeLoss="0.31" speed="12.48" speedRelative="0.90" departed="0" arrived="1" entered="1" left="0" laneChangedFrom="0" laneChangedTo="0" flow="60.00"/>
        <edge id="-E8" sampledSeconds="89.00" traveltime="22.25" overlapDensity="25.22" waitingTime="54.00" timeLoss="72.80" speed="2.37" speedRelative="0.17" departed="4" arrived="0" entered="0" left="4" laneChangedFrom="0" laneChangedTo="0" flow="214.92"/>
        <edge id="-E9" sampledSeconds="77.13" traveltime="38.56" overlapDensity="31.38" waitingTime="63.00" timeLoss="71.15" speed="0.99" speedRelative="0.07" departed="0" arrived="0" entered="2" left="2" laneChangedFrom="0" laneChangedTo="0" flow="111.61"/>
        <edge id="E0" sampledSeconds="29.94" traveltime="9.98" overlapDensity="8.32" waitingTime="7.00" timeLoss="17.72" speed="5.43" speedRelative="0.39" departed="2" arrived="1" entered="1" left="2" laneChangedFrom="0" laneChangedTo="0" flow="157.58"/>
        <edge id="E1" sampledSeconds="9.85" traveltime="4.92" overlapDensity="2.81" waitingTime="0.00" timeLoss="1.90" speed="11.42" speedRelative="0.82" departed="0" arrived="0" entered="2" left="2" laneChangedFrom="0" laneChangedTo="0" flow="115.48"/>
        <edge id="E10" sampledSeconds="48.97" traveltime="24.48" overlapDensity="12.87" waitingTime="33.00" timeLoss="39.90" speed="2.38" speedRelative="0.17" departed="1" arrived="0" entered="1" left="2" laneChangedFrom="0" laneChangedTo="0" flow="110.44"/>
        <edge id="E11" sampledSeconds="6.48" traveltime="3.24" overlapDensity="2.79" waitingTime="0.00" timeLoss="1.19" speed="10.04" speedRelative="0.72" departed="0" arrived="0" entered="2" left="2" laneChangedFrom="0" laneChangedTo="0" flow="100.83"/>
        <edge id="E12" sampledSeconds="0.00" departed="0" arrived="0" entered="0" left="0" laneChangedFrom="0" laneChangedTo="0"/>
        <edge id="E13" sampledSeconds="0.00" departed="0" arrived="0" entered="0" left="0" laneChangedFrom="0" laneChangedTo="0"/>
        <edge id="E14" sampledSeconds="0.00" departed="0" arrived="0" entered="0" left="0" laneChangedFrom="0" laneChangedTo="0"/>
        <edge id="E15" sampledSeconds="4.43" traveltime="4.43" overlapDensity="1.74" waitingTime="0.00" timeLoss="1.11" speed="10.69" speedRelative="0.77" departed="0" arrived="1" entered="1" left="0" laneChangedFrom="0" laneChangedTo="0" flow="60.00"/>
        <edge id="E16" sampledSeconds="0.00" departed="0" arrived="0" entered="0" left="0" laneChangedFrom="0" laneChangedTo="0"/>
        <edge id="E17" sampledSeconds="0.00" departed="0" arrived="0" entered="0" left="0" laneChangedFrom="0" laneChangedTo="0"/>
        <edge id="E18" sampledSeconds="0.00" departed="0" arrived="0" entered="0" left="0" laneChangedFrom="0" laneChangedTo="0"/>
        <edge id="E19" sampledSeconds="0.00" departed="0" arrived="0" entered="0" left="0" laneChangedFrom="0" laneChangedTo="0"/>
        <edge id="E2" sampledSeconds="35.26" traveltime="17.63" overlapDensity="15.02" waitingTime="27.00" timeLoss="29.29" speed="2.33" speedRelative="0.17" departed="0" arrived="1" entered="2" left="1" laneChangedFrom="0" laneChangedTo="0" flow="118.46"/>
        <edge id="E20" sampledSeconds="2.24" traveltime="2.24" overlapDensity="1.73" waitingTime="0.00" timeLoss="0.31" speed="11.86" speedRelative="0.85" departed="0" arrived="1" entered="1" left="0" laneChangedFrom="0" laneChangedTo="0" flow="60.00"/>
        <edge id="E21" sampledSeconds="0.00" departed="0" arrived="0" entered="0" left="0" laneChangedFrom="0" laneChangedTo="0"/>
        <edge id="E22" sampledSeconds="0.00" departed="0" arrived="0" entered="0" left="0" laneChangedFrom="0" laneChangedTo="0"/>
        <edge id="E23" sampledSeconds="0.00" departed="0" arrived="0" entered="0" left="0" laneChangedFrom="0" laneChangedTo="0"/>
        <edge id="E3" sampledSeconds="2.86" traveltime="2.86" overlapDensity="1.41" waitingTime="0.00" timeLoss="0.09" speed="13.60" speedRelative="0.98" departed="0" arrived="1" entered="1" left="0" laneChangedFrom="0" laneChangedTo="0" flow="60.00"/>
        <edge id="E4" sampledSeconds="30.69" traveltime="15.34" overlapDensity="18.87" waitingTime="20.00" timeLoss="26.52" speed="1.67" speedRelative="0.12" departed="0" arrived="0" entered="2" left="2" laneChangedFrom="0" laneChangedTo="0" flow="113.17"/>
        <edge id="E5" sampledSeconds="77.10" traveltime="38.55" overlapDensity="21.07" waitingTime="57.00" timeLoss="67.57" speed="1.51" speedRelative="0.11" departed="0" arrived="0" entered="2" left="2" laneChangedFrom="0" laneChangedTo="0" flow="114.87"/>
        <edge id="E6" sampledSeconds="39.77" traveltime="39.77" overlapDensity="12.18" waitingTime="33.00" timeLoss="36.25" speed="1.34" speedRelative="0.10" departed="0" arrived="0" entered="1" left="1" laneChangedFrom="0" laneChangedTo="0" flow="58.90"/>
        <edge id="E7" sampledSeconds="36.83" traveltime="18.42" overlapDensity="20.77" waitingTime="24.00" timeLoss="32.85" speed="1.34" speedRelative="0.10" departed="1" arrived="0" entered="1" left="2" laneChangedFrom="0" laneChangedTo="0" flow="100.08"/>
        <edge id="E8" sampledSeconds="25.02" traveltime="12.51" overlapDensity="7.09" waitingTime="12.00" timeLoss="16.71" speed="4.86" speedRelative="0.35" departed="0" arrived="1" entered="2" left="1" laneChangedFrom="0" laneChangedTo="0" flow="118.98"/>
        <edge id="E9" sampledSeconds="49.99" traveltime="16.66" overlapDensity="20.34" waitingTime="36.00" timeLoss="41.65" speed="2.17" speedRelative="0.16" departed="1" arrived="0" entered="2" left="3" laneChangedFrom="0" laneChangedTo="0" flow="158.95"/>
    </interval>
    <interval begin="60.00" end="120.00" id="edgeData">
        <edge id="-E0" sampledSeconds="75.38" traveltime="37.69" overlapDensity="20.95" waitingTime="55.00" timeLoss="66.29" speed="1.57" speedRelative="0.11" departed="0" arrived="0" entered="2" left="2" laneChangedFrom="0" laneChangedTo="0" flow="118.30"/>
        <edge id="-E1" sampledSeconds="190.29" traveltime="27.18" overlapDensity="54.26" waitingTime="122.00" timeLoss="161.53" speed="2.12" speedRelative="0.15" departed="0" arrived="2" entered="7" left="5" laneChangedFrom="0" laneChangedTo="0" flow="409.23"/>
        <edge id="-E10" sampledSeconds="6.01" traveltime="6.01" overlapDensity="1.58" waitingTime="0.00" timeLoss="1.18" speed="10.06" speedRelative="0.72" departed="0" arrived="0" entered="1" left="1" laneChangedFrom="0" laneChangedTo="0" flow="57.14"/>
        <edge id="-E11" sampledSeconds="67.20" traveltime="33.60" overlapDensity="28.92" waitingTime="52.00" timeLoss="62.47" speed="1.03" speedRelative="0.07" departed="1" arrived="0" entered="1" left="2" laneChangedFrom="0" laneChangedTo="0" flow="106.82"/>
        <edge id="-E12" sampledSeconds="17.00" traveltime="17.00" overlapDensity="9.34" waitingTime="11.00" timeLoss="15.21" speed="1.43" speedRelative="0.10" departed="1" arrived="0" entered="0" left="1" laneChangedFrom="0" laneChangedTo="0" flow="47.93"/>
        <edge id="-E13" sampledSeconds="4.00" traveltime="4.00" overlapDensity="2.39" waitingTime="0.00" timeLoss="2.92" speed="4.41" speedRelative="0.32" departed="1" arrived="0" entered="0" left="1" laneChangedFrom="0" laneChangedTo="0" flow="38.04"/>
        <edge id="-E14" sampledSeconds="4.00" traveltime="4.00" overlapDensity="2.40" waitingTime="0.00" timeLoss="2.27" speed="5.39" speedRelative="0.39" departed="1" arrived="0" entered="0" left="1" laneChangedFrom="0" laneChangedTo="0" flow="46.56"/>
        <edge id="-E15" sampledSeconds="0.00" departed="0" arrived="0" entered="0" left="0" laneChangedFrom="0" laneChangedTo="0"/>
        <edge id="-E16" sampledSeconds="0.00" departed="0" arrived="0" entered="0" left="0" laneChangedFrom="0" laneChangedTo="0"/>
        <edge id="-E17" sampledSeconds="0.00" departed="0" arrived="0" entered="0" left="0" laneChangedFrom="0" laneChangedTo="0"/>
        <edge id="-E18" sampledSeconds="32.00" traveltime="32.00" overlapDensity="21.21" waitingTime="26.00" timeLoss="30.83" speed="0.60" speedRelative="0.04" departed="1" arrived="0" entered="0" left="1" laneChangedFrom="0" laneChangedTo="0" flow="45.44"/>
        <edge id="-E19" sampledSeconds="0.00" departed="0" arrived="0" entered="0" left="0" laneChangedFrom="0" laneChangedTo="0"/>
        <edge id="-E2" sampledSeconds="89.38" traveltime="11.17" overlapDensity="38.08" waitingTime="41.00" timeLoss="66.97" speed="3.18" speedRelative="0.23" departed="2" arrived="2" entered="6" left="6" laneChangedFrom="0" laneChangedTo="0" flow="426.67"/>
        <edge id="-E20" sampledSeconds="46.00" traveltime="46.00" overlapDensity="35.51" waitingTime="41.00" timeLoss="44.93" speed="0.34" speedRelative="0.02" departed="1" arrived="0" entered="0" left="1" laneChangedFrom="0" laneChangedTo="0" flow="43.04"/>
        <edge id="-E21" sampledSeconds="27.00" traveltime="27.00" overlapDensity="27.76" waitingTime="22.00" timeLoss="26.37" speed="0.37" speedRelative="0.03" departed="1" arrived="0" entered="0" left="1" laneChangedFrom="0" laneChangedTo="0" flow="37.42"/>
        <edge id="-E22" sampledSeconds="22.00" traveltime="22.00" overlapDensity="10.99" waitingTime="14.00" timeLoss="19.82" speed="1.24" speedRelative="0.09" departed="1" arrived="0" entered="0" left="1" laneChangedFrom="0" laneChangedTo="0" flow="49.03"/>
        <edge id="-E23" sampledSeconds="0.00" departed="0" arrived="0" entered="0" left="0" laneChangedFrom="0" laneChangedTo="0"/>
        <edge id="-E3" sampledSeconds="0.00" departed="0" arrived="0" entered="0" left="0" laneChangedFrom="0" laneChangedTo="0"/>
        <edge id="-E4" sampledSeconds="30.92" traveltime="6.18" overlapDensity="19.02" waitingTime="10.00" timeLoss="21.07" speed="4.28" speedRelative="0.31" departed="1" arrived="2" entered="4" left="3" laneChangedFrom="0" laneChangedTo="0" flow="270.91"/>
        <edge id="-E5" sampledSeconds="17.27" traveltime="8.63" overlapDensity="4.72" waitingTime="0.00" timeLoss="8.62" speed="6.51" speedRelative="0.47" departed="1" arrived="0" entered="1" left="2" laneChangedFrom="0" laneChangedTo="0" flow="110.58"/>
        <edge id="-E6" sampledSeconds="0.00" departed="0" arrived="0" entered="0" left="0" laneChangedFrom="0" laneChangedTo="0"/>
        <edge id="-E7" sampledSeconds="40.44" traveltime="8.09" overlapDensity="22.80" waitingTime="16.00" timeLoss="32.34" speed="2.93" speedRelative="0.21" departed="0" arrived="0" entered="5" left="5" laneChangedFrom="0" laneChangedTo="0" flow="240.55"/>
        <edge id="-E8" sampledSeconds="36.36" traveltime="6.06" overlapDensity="10.30" waitingTime="0.00" timeLoss="10.15" speed="9.17" speedRelative="0.66" departed="1" arrived="0" entered="5" left="6" laneChangedFrom="0" laneChangedTo="0" flow="340.30"/>
        <edge id="-E9" sampledSeconds="26.32" traveltime="5.26" overlapDensity="10.71" waitingTime="0.00" timeLoss="12.61" speed="7.11" speedRelative="0.51" departed="3" arrived="1" entered="2" left="4" laneChangedFrom="0" laneChangedTo="0" flow="272.89"/>
        <edge id="E0" sampledSeconds="333.41" traveltime="55.57" overlapDensity="92.64" waitingTime="247.00" timeLoss="309.07" speed="1.04" speedRelative="0.07" departed="2" arrived="1" entered="4" left="5" laneChangedFrom="0" laneChangedTo="0" flow="340.76"/>
        <edge id="E1" sampledSeconds="99.02" traveltime="33.01" overlapDensity="28.23" waitingTime="69.00" timeLoss="86.86" speed="1.68" speedRelative="0.12" departed="0" arrived="0" entered="3" left="3" laneChangedFrom="0" laneChangedTo="0" flow="170.62"/>
        <edge id="E10" sampledSeconds="34.33" traveltime="17.17" overlapDensity="9.02" waitingTime="16.00" timeLoss="25.18" speed="3.44" speedRelative="0.25" departed="1" arrived="0" entered="1" left="2" laneChangedFrom="0" laneChangedTo="0" flow="111.82"/>
        <edge id="E11" sampledSeconds="16.66" traveltime="4.17" overlapDensity="7.17" waitingTime="0.00" timeLoss="6.13" speed="8.77" speedRelative="0.63" departed="0" arrived="0" entered="4" left="4" laneChangedFrom="0" laneChangedTo="0" flow="226.50"/>
        <edge id="E12" sampledSeconds="0.00" departed="0" arrived="0" entered="0" left="0" laneChangedFrom="0" laneChangedTo="0"/>
        <edge id="E13" sampledSeconds="3.17" traveltime="3.17" overlapDensity="1.90" waitingTime="0.00" timeLoss="0.93" speed="10.01" speedRelative="0.72" departed="0" arrived="1" entered="1" left="0" laneChangedFrom="0" laneChangedTo="0" flow="60.00"/>
        <edge id="E14" sampledSeconds="0.00" departed="0" arrived="0" entered="0" left="0" laneChangedFrom="0" laneChangedTo="0"/>
        <edge id="E15" sampledSeconds="0.00" departed="0" arrived="0" entered="0" left="0" laneChangedFrom="0" laneChangedTo="0"/>
        <edge id="E16" sampledSeconds="0.00" departed="0" arrived="0" entered="0" left="0" laneChangedFrom="0" laneChangedTo="0"/>
        <edge id="E17" sampledSeconds="3.23" traveltime="3.23" overlapDensity="1.49" waitingTime="0.00" timeLoss="0.26" speed="11.33" speedRelative="0.82" departed="0" arrived="1" entered="1" left="0" laneChangedFrom="0" laneChangedTo="0" flow="60.00"/>
        <edge id="E18" sampledSeconds="2.76" traveltime="2.76" overlapDensity="1.83" waitingTime="0.00" timeLoss="0.77" speed="10.91" speedRelative="0.79" departed="0" arrived="1" entered="1" left="0" laneChangedFrom="0" laneChangedTo="0" flow="60.00"/>
        <edge id="E19" sampledSeconds="0.00" departed="0" arrived="0" entered="0" left="0" laneChangedFrom="0" laneChangedTo="0"/>
        <edge id="E2" sampledSeconds="41.44" traveltime="41.44" overlapDensity="17.66" waitingTime="36.00" timeLoss="38.82" speed="0.92" speedRelative="0.07" departed="0" arrived="0" entered="1" left="1" laneChangedFrom="0" laneChangedTo="0" flow="58.46"/>
        <edge id="E20" sampledSeconds="5.45" traveltime="2.72" overlapDensity="4.21" waitingTime="0.00" timeLoss="1.61" speed="8.84" speedRelative="0.64" departed="0" arrived="2" entered="2" left="0" laneChangedFrom="0" laneChangedTo="0" flow="119.95"/>
        <edge id="E21" sampledSeconds="0.00" departed="0" arrived="0" entered="0" left="0" laneChangedFrom="0" laneChangedTo="0"/>
        <edge id="E22" sampledSeconds="0.00" departed="0" arrived="0" entered="0" left="0" laneChangedFrom="0" laneChangedTo="0"/>
        <edge id="E23" sampledSeconds="0.00" departed="0" arrived="0" entered="0" left="0" laneChangedFrom="0" laneChangedTo="0"/>
        <edge id="E3" sampledSeconds="86.55" traveltime="21.64" overlapDensity="42.50" waitingTime="64.00" timeLoss="78.36" speed="1.43" speedRelative="0.10" departed="2" arrived="1" entered="2" left="3" laneChangedFrom="0" laneChangedTo="0" flow="210.42"/>
        <edge id="E4" sampledSeconds="120.74" traveltime="24.15" overlapDensity="74.25" waitingTime="86.00" timeLoss="111.96" speed="1.03" speedRelative="0.07" departed="2" arrived="1" entered="3" left="4" laneChangedFrom="0" laneChangedTo="0" flow="263.51"/>
        <edge id="E5" sampledSeconds="22.33" traveltime="22.33" overlapDensity="6.10" waitingTime="13.00" timeLoss="18.73" speed="2.62" speedRelative="0.19" departed="0" arrived="0" entered="1" left="1" laneChangedFrom="0" laneChangedTo="0" flow="57.62"/>
        <edge id="E6" sampledSeconds="75.23" traveltime="12.54" overlapDensity="23.04" waitingTime="16.00" timeLoss="52.95" speed="4.07" speedRelative="0.29" departed="2" arrived="0" entered="4" left="6" laneChangedFrom="0" laneChangedTo="0" flow="337.45"/>
        <edge id="E7" sampledSeconds="3.19" traveltime="3.19" overlapDensity="1.80" waitingTime="0.00" timeLoss="0.98" speed="9.01" speedRelative="0.65" departed="0" arrived="0" entered="1" left="1" laneChangedFrom="0" laneChangedTo="0" flow="58.39"/>
        <edge id="E8" sampledSeconds="55.35" traveltime="18.45" overlapDensity="15.69" waitingTime="26.00" timeLoss="43.36" speed="3.02" speedRelative="0.22" departed="2" arrived="1" entered="1" left="2" laneChangedFrom="0" laneChangedTo="0" flow="165.57"/>
        <edge id="E9" sampledSeconds="20.20" traveltime="5.05" overlapDensity="8.22" waitingTime="0.00" timeLoss="10.32" speed="6.76" speedRelative="0.49" departed="3" arrived="0" entered="1" left="4" laneChangedFrom="0" laneChangedTo="0" flow="200.01"/>
    </interval>
    <interval begin="120.00" end="180.00" id="edgeData">
        <edge id="-E0" sampledSeconds="24.86" traveltime="8.29" overlapDensity="6.91" waitingTime="2.00" timeLoss="12.78" speed="6.74" speedRelative="0.49" departed="1" arrived="0" entered="2" left="3" laneChangedFrom="0" laneChangedTo="0" flow="167.66"/>
        <edge id="-E1" sampledSeconds="3.14" traveltime="3.14" overlapDensity="0.90" waitingTime="0.00" timeLoss="0.06" speed="14.39" speedRelative="1.04" departed="0" arrived="0" entered="1" left="1" laneChangedFrom="0" laneChangedTo="0" flow="46.43"/>
        <edge id="-E10" sampledSeconds="137.67" traveltime="45.89" overlapDensity="36.17" waitingTime="100.00" timeLoss="123.46" speed="1.36" speedRelative="0.10" departed="1" arrived="1" entered="2" left="2" laneChangedFrom="0" laneChangedTo="0" flow="172.33"/>
        <edge id="-E11" sampledSeconds="23.60" traveltime="11.80" overlapDensity="10.16" waitingTime="13.00" timeLoss="18.54" speed="3.00" speedRelative="0.22" departed="0" arrived="0" entered="2" left="2" laneChangedFrom="0" laneChangedTo="0" flow="109.66"/>
        <edge id="-E12" sampledSeconds="0.00" departed="0" arrived="0" entered="0" left="0" laneChangedFrom="0" laneChangedTo="0"/>
        <edge id="-E13" sampledSeconds="19.00" traveltime="9.50" overlapDensity="11.37" waitingTime="5.00" timeLoss="15.90" speed="2.24" speedRelative="0.16" departed="2" arrived="0" entered="0" left="2" laneChangedFrom="0" laneChangedTo="0" flow="91.71"/>
        <edge id="-E14" sampledSeconds="0.00" departed="0" arrived="0" entered="0" left="0" laneChangedFrom="0" laneChangedTo="0"/>
        <edge id="-E15" sampledSeconds="11.00" traveltime="11.00" overlapDensity="4.33" waitingTime="4.00" timeLoss="8.73" speed="3.29" speedRelative="0.24" departed="1" arrived="0" entered="0" left="1" laneChangedFrom="0" laneChangedTo="0" flow="51.35"/>
        <edge id="-E16" sampledSeconds="5.00" traveltime="5.00" overlapDensity="2.34" waitingTime="0.00" timeLoss="3.31" speed="4.95" speedRelative="0.36" departed="1" arrived="0" entered="0" left="1" laneChangedFrom="0" laneChangedTo="0" flow="41.73"/>
        <edge id="-E17" sampledSeconds="0.00" departed="0" arrived="0" entered="0" left="0" laneChangedFrom="0" laneChangedTo="0"/>
        <edge id="-E18" sampledSeconds="4.00" traveltime="4.00" overlapDensity="2.65" waitingTime="0.00" timeLoss="2.75" speed="4.51" speedRelative="0.32" departed="1" arrived="0" entered="0" left="1" laneChangedFrom="0" laneChangedTo="0" flow="43.05"/>
        <edge id="-E19" sampledSeconds="6.00" traveltime="6.00" overlapDensity="5.47" waitingTime="0.00" timeLoss="5.07" speed="2.03" speedRelative="0.15" departed="1" arrived="0" entered="0" left="1" laneChangedFrom="0" laneChangedTo="0" flow="39.93"/>
        <edge id="-E2" sampledSeconds="41.81" traveltime="41.81" overlapDensity="17.81" waitingTime="37.00" timeLoss="39.36" speed="0.91" speedRelative="0.07" departed="0" arrived="0" entered="1" left="1" laneChangedFrom="0" laneChangedTo="0" flow="58.46"/>
        <edge id="-E20" sampledSeconds="57.00" traveltime="28.50" overlapDensity="44.00" waitingTime="46.00" timeLoss="55.02" speed="0.48" speedRelative="0.03" departed="2" arrived="0" entered="0" left="2" laneChangedFrom="0" laneChangedTo="0" flow="76.36"/>
        <edge id="-E21" sampledSeconds="25.00" traveltime="12.50" overlapDensity="25.70" waitingTime="19.00" timeLoss="23.87" speed="0.65" speedRelative="0.05" departed="2" arrived="0" entered="0" left="2" laneChangedFrom="0" laneChangedTo="0" flow="59.85"/>
        <edge id="-E22" sampledSeconds="0.00" departed="0" arrived="0" entered="0" left="0" laneChangedFrom="0" laneChangedTo="0"/>
        <edge id="-E23" sampledSeconds="15.00" traveltime="5.00" overlapDensity="6.26" waitingTime="0.00" timeLoss="8.53" speed="5.78" speedRelative="0.42" departed="3" arrived="0" entered="0" left="3" laneChangedFrom="0" laneChangedTo="0" flow="130.17"/>
        <edge id="-E3" sampledSeconds="0.00" departed="0" arrived="0" entered="0" left="0" laneChangedFrom="0" laneChangedTo="0"/>
        <edge id="-E4" sampledSeconds="126.18" traveltime="42.06" overlapDensity="77.60" waitingTime="103.00" timeLoss="121.42" speed="0.57" speedRelative="0.04" departed="1" arrived="0" entered="2" left="3" laneChangedFrom="0" laneChangedTo="0" flow="158.03"/>
        <edge id="-E5" sampledSeconds="180.73" traveltime="36.15" overlapDensity="49.40" waitingTime="127.00" timeLoss="159.78" speed="1.66" speedRelative="0.12" departed="1" arrived="2" entered="4" left="3" laneChangedFrom="0" laneChangedTo="0" flow="289.71"/>
        <edge id="-E6" sampledSeconds="141.73" traveltime="23.62" overlapDensity="43.41" waitingTime="79.00" timeLoss="119.51" speed="2.23" speedRelative="0.16" departed="0" arrived="1" entered="6" left="5" laneChangedFrom="0" laneChangedTo="0" flow="347.88"/>
        <edge id="-E7" sampledSeconds="41.17" traveltime="41.17" overlapDensity="23.21" waitingTime="36.00" timeLoss="39.20" speed="0.69" speedRelative="0.05" departed="0" arrived="0" entered="1" left="1" laneChangedFrom="0" laneChangedTo="0" flow="57.97"/>
        <edge id="-E8" sampledSeconds="231.10" traveltime="38.52" overlapDensity="65.49" waitingTime="162.00" timeLoss="207.42" speed="1.43" speedRelative="0.10" departed="2" arrived="0" entered="4" left="6" laneChangedFrom="0" laneChangedTo="0" flow="337.05"/>
        <edge id="-E9" sampledSeconds="196.83" traveltime="32.81" overlapDensity="80.09" waitingTime="142.00" timeLoss="179.88" speed="1.17" speedRelative="0.08" departed="2" arrived="1" entered="4" left="5" laneChangedFrom="0" laneChangedTo="0" flow="334.45"/>
        <edge id="E0" sampledSeconds="39.12" traveltime="19.56" overlapDensity="10.87" waitingTime="2.00" timeLoss="30.92" speed="2.67" speedRelative="0.19" departed="1" arrived="0" entered="1" left="2" laneChangedFrom="0" laneChangedTo="0" flow="104.46"/>
        <edge id="E1" sampledSeconds="10.31" traveltime="5.16" overlapDensity="2.94" waitingTime="0.00" timeLoss="1.65" speed="10.74" speedRelative="0.77" departed="0" arrived="0" entered="2" left="2" laneChangedFrom="0" laneChangedTo="0" flow="113.68"/>
        <edge id="E10" sampledSeconds="7.65" traveltime="7.65" overlapDensity="2.01" waitingTime="0.00" timeLoss="3.24" speed="8.14" speedRelative="0.59" departed="0" arrived="0" entered="1" left="1" laneChangedFrom="0" laneChangedTo="0" flow="58.96"/>
        <edge id="E11" sampledSeconds="0.00" departed="0" arrived="0" entered="0" left="0" laneChangedFrom="0" laneChangedTo="0"/>
        <edge id="E12" sampledSeconds="0.00" departed="0" arrived="0" entered="0" left="0" laneChangedFrom="0" laneChangedTo="0"/>
        <edge id="E13" sampledSeconds="8.46" traveltime="2.82" overlapDensity="5.06" waitingTime="0.00" timeLoss="1.49" speed="11.65" speedRelative="0.84" departed="0" arrived="3" entered="3" left="0" laneChangedFrom="0" laneChangedTo="0" flow="180.00"/>
        <edge id="E14" sampledSeconds="5.17" traveltime="2.58" overlapDensity="3.10" waitingTime="0.00" timeLoss="1.42" speed="11.37" speedRelative="0.82" departed="0" arrived="2" entered="2" left="0" laneChangedFrom="0" laneChangedTo="0" flow="120.00"/>
        <edge id="E15" sampledSeconds="0.00" departed="0" arrived="0" entered="0" left="0" laneChangedFrom="0" laneChangedTo="0"/>
        <edge id="E16" sampledSeconds="3.45" traveltime="3.45" overlapDensity="1.61" waitingTime="0.00" timeLoss="0.12" speed="11.77" speedRelative="0.85" departed="0" arrived="1" entered="1" left="0" laneChangedFrom="0" laneChangedTo="0" flow="60.00"/>
        <edge id="E17" sampledSeconds="0.00" departed="0" arrived="0" entered="0" left="0" laneChangedFrom="0" laneChangedTo="0"/>