<?xml version="1.0" encoding="UTF-8"?>

<!-- generated on 2026-06-05T16:22:47.016813+09:00 by Eclipse SUMO GUI 1.26.0
<sumoConfiguration xmlns:xsi="http://www.w3.org/2001/XMLSchema-instance" xsi:noNamespaceSchemaLocation="http://sumo.dlr.de/xsd/sumoConfiguration.xsd">

    <input>
        <net-file value="C:\Users\GLAB-PC002\Desktop\sumo_project\map.net.xml"/>
        <route-files value="C:\Users\GLAB-PC002\Desktop\sumo_project\car.rou.xml"/>
        <additional-files value="C:\Users\GLAB-PC002\Desktop\sumo_project\edgeData.add.xml"/>
    </input>

    <output>
        <tripinfo-output value="C:\Users\GLAB-PC002\Desktop\sumo_project\tripinfo.xml"/>
    </output>

    <time>
        <begin value="0"/>
        <end value="500"/>
    </time>

    <traci_server>
        <remote-port value="55846"/>
    </traci_server>

</sumoConfiguration>
-->

<meandata xmlns:xsi="http://www.w3.org/2001/XMLSchema-instance" xsi:noNamespaceSchemaLocation="http://sumo.dlr.de/xsd/meandata_file.xsd">
    <interval begin="0.00" end="60.00" id="edgeData">
        <edge id="-E0" sampledSeconds="23.21" traveltime="11.60" overlapDensity="6.45" waitingTime="1.00" timeLoss="14.96" speed="4.81" speedRelative="0.35" departed="1" arrived="0" entered="1" left="2" laneChangedFrom="0" laneChangedTo="0" flow="111.71"/>
        <edge id="-E1" sampledSeconds="12.53" traveltime="6.26" overlapDensity="3.57" waitingTime="0.00" timeLoss="3.62" speed="9.72" speedRelative="0.70" departed="0" arrived="1" entered="2" left="1" laneChangedFrom="0" laneChangedTo="0" flow="119.90"/>
        <edge id="-E10" sampledSeconds="14.99" traveltime="7.50" overlapDensity="3.94" waitingTime="0.00" timeLoss="5.95" speed="8.12" speedRelative="0.58" departed="0" arrived="1" entered="2" left="1" laneChangedFrom="0" laneChangedTo="0" flow="110.45"/>
        <edge id="-E11" sampledSeconds="13.94" traveltime="4.65" overlapDensity="6.00" waitingTime="0.00" timeLoss="6.53" speed="7.96" speedRelative="0.57" departed="0" arrived="1" entered="3" left="2" laneChangedFrom="0" laneChangedTo="0" flow="170.23"/>
        <edge id="-E12" sampledSeconds="4.00" traveltime="4.00" overlapDensity="2.20" waitingTime="0.00" timeLoss="2.25" speed="5.34" speedRelative="0.38" departed="1" arrived="0" entered="0" left="1" laneChangedFrom="0" laneChangedTo="0" flow="42.22"/>
        <edge id="-E13" sampledSeconds="4.00" traveltime="4.00" overlapDensity="2.39" waitingTime="0.00" timeLoss="2.55" speed="5.17" speedRelative="0.37" departed="1" arrived="0" entered="0" left="1" laneChangedFrom="0" laneChangedTo="0" flow="44.56"/>
        <edge id="-E14" sampledSeconds="4.00" traveltime="4.00" overlapDensity="2.40" waitingTime="0.00" timeLoss="2.35" speed="5.25" speedRelative="0.38" departed="1" arrived="0" entered="0" left="1" laneChangedFrom="0" laneChangedTo="0" flow="45.33"/>
        <edge id="-E15" sampledSeconds="19.00" traveltime="6.33" overlapDensity="7.48" waitingTime="0.00" timeLoss="12.48" speed="4.90" speedRelative="0.35" departed="3" arrived="0" entered="0" left="3" laneChangedFrom="0" laneChangedTo="0" flow="132.13"/>
        <edge id="-E16" sampledSeconds="9.00" traveltime="9.00" overlapDensity="4.22" waitingTime="0.00" timeLoss="6.89" speed="3.34" speedRelative="0.24" departed="1" arrived="0" entered="0" left="1" laneChangedFrom="0" laneChangedTo="0" flow="50.70"/>
        <edge id="-E17" sampledSeconds="0.00" departed="0" arrived="0" entered="0" left="0" laneChangedFrom="0" laneChangedTo="0"/>
        <edge id="-E18" sampledSeconds="4.00" traveltime="4.00" overlapDensity="2.65" waitingTime="0.00" timeLoss="2.50" speed="4.81" speedRelative="0.35" departed="1" arrived="0" entered="0" left="1" laneChangedFrom="0" laneChangedTo="0" flow="45.92"/>
        <edge id="-E19" sampledSeconds="15.00" traveltime="3.75" overlapDensity="13.68" waitingTime="0.00" timeLoss="11.84" speed="3.06" speedRelative="0.22" departed="4" arrived="0" entered="0" left="4" laneChangedFrom="0" laneChangedTo="0" flow="150.54"/>
        <edge id="-E2" sampledSeconds="24.55" traveltime="6.14" overlapDensity="10.46" waitingTime="0.00" timeLoss="15.03" speed="5.41" speedRelative="0.39" departed="2" arrived="0" entered="2" left="4" laneChangedFrom="0" laneChangedTo="0" flow="203.54"/>
        <edge id="-E20" sampledSeconds="3.00" traveltime="3.00" overlapDensity="2.32" waitingTime="0.00" timeLoss="2.13" speed="4.06" speedRelative="0.29" departed="1" arrived="0" entered="0" left="1" laneChangedFrom="0" laneChangedTo="0" flow="33.87"/>
        <edge id="-E21" sampledSeconds="0.00" departed="0" arrived="0" entered="0" left="0" laneChangedFrom="0" laneChangedTo="0"/>
        <edge id="-E22" sampledSeconds="12.00" traveltime="6.00" overlapDensity="6.00" waitingTime="0.00" timeLoss="8.00" speed="4.03" speedRelative="0.29" departed="2" arrived="0" entered="0" left="2" laneChangedFrom="0" laneChangedTo="0" flow="87.02"/>
        <edge id="-E23" sampledSeconds="0.00" departed="0" arrived="0" entered="0" left="0" laneChangedFrom="0" laneChangedTo="0"/>
        <edge id="-E3" sampledSeconds="18.47" traveltime="6.16" overlapDensity="9.07" waitingTime="0.00" timeLoss="12.21" speed="5.01" speedRelative="0.36" departed="0" arrived="1" entered="3" left="2" laneChangedFrom="0" laneChangedTo="0" flow="158.68"/>
        <edge id="-E4" sampledSeconds="12.54" traveltime="4.18" overlapDensity="7.71" waitingTime="0.00" timeLoss="5.93" speed="7.02" speedRelative="0.51" departed="0" arrived="2" entered="3" left="1" laneChangedFrom="0" laneChangedTo="0" flow="177.35"/>
        <edge id="-E5" sampledSeconds="51.46" traveltime="12.87" overlapDensity="14.07" waitingTime="0.00" timeLoss="34.15" speed="4.43" speedRelative="0.32" departed="1" arrived="0" entered="3" left="4" laneChangedFrom="0" laneChangedTo="0" flow="224.53"/>
        <edge id="-E6" sampledSeconds="19.75" traveltime="6.58" overlapDensity="6.05" waitingTime="0.00" timeLoss="7.84" speed="7.80" speedRelative="0.56" departed="2" arrived="1" entered="1" left="2" laneChangedFrom="0" laneChangedTo="0" flow="164.22"/>
        <edge id="-E7" sampledSeconds="4.82" traveltime="2.41" overlapDensity="2.72" waitingTime="0.00" timeLoss="0.83" speed="11.96" speedRelative="0.86" departed="0" arrived="1" entered="2" left="1" laneChangedFrom="0" laneChangedTo="0" flow="106.80"/>
        <edge id="-E8" sampledSeconds="32.00" traveltime="8.00" overlapDensity="9.07" waitingTime="0.00" timeLoss="16.13" speed="6.46" speedRelative="0.46" departed="4" arrived="0" entered="0" left="4" laneChangedFrom="0" laneChangedTo="0" flow="210.85"/>
        <edge id="-E9" sampledSeconds="4.09" traveltime="4.09" overlapDensity="1.66" waitingTime="0.00" timeLoss="1.24" speed="9.86" speedRelative="0.71" departed="0" arrived="0" entered="1" left="1" laneChangedFrom="0" laneChangedTo="0" flow="59.06"/>
        <edge id="E0" sampledSeconds="36.15" traveltime="9.04" overlapDensity="10.04" waitingTime="0.00" timeLoss="19.39" speed="6.11" speedRelative="0.44" departed="2" arrived="1" entered="2" left="3" laneChangedFrom="0" laneChangedTo="0" flow="217.17"/>
        <edge id="E1" sampledSeconds="13.82" traveltime="6.91" overlapDensity="3.94" waitingTime="0.00" timeLoss="5.73" speed="8.32" speedRelative="0.60" departed="0" arrived="0" entered="2" left="2" laneChangedFrom="0" laneChangedTo="0" flow="117.93"/>
        <edge id="E10" sampledSeconds="20.16" traveltime="6.72" overlapDensity="5.30" waitingTime="0.00" timeLoss="6.44" speed="8.56" speedRelative="0.62" departed="1" arrived="0" entered="2" left="3" laneChangedFrom="0" laneChangedTo="0" flow="163.32"/>
        <edge id="E11" sampledSeconds="33.30" traveltime="11.10" overlapDensity="14.33" waitingTime="0.00" timeLoss="25.01" speed="3.23" speedRelative="0.23" departed="0" arrived="0" entered="3" left="3" laneChangedFrom="0" laneChangedTo="0" flow="166.51"/>
        <edge id="E12" sampledSeconds="0.00" departed="0" arrived="0" entered="0" left="0" laneChangedFrom="0" laneChangedTo="0"/>
        <edge id="E13" sampledSeconds="4.74" traveltime="2.37" overlapDensity="2.84" waitingTime="0.00" timeLoss="0.27" speed="12.93" speedRelative="0.93" departed="0" arrived="2" entered="2" left="0" laneChangedFrom="0" laneChangedTo="0" flow="120.00"/>
        <edge id="E14" sampledSeconds="2.08" traveltime="2.08" overlapDensity="1.25" waitingTime="0.00" timeLoss="0.09" speed="14.49" speedRelative="1.04" departed="0" arrived="1" entered="1" left="0" laneChangedFrom="0" laneChangedTo="0" flow="60.00"/>
        <edge id="E15" sampledSeconds="4.52" traveltime="4.52" overlapDensity="1.78" waitingTime="0.00" timeLoss="1.20" speed="10.47" speedRelative="0.75" departed="0" arrived="1" entered="1" left="0" laneChangedFrom="0" laneChangedTo="0" flow="60.00"/>
        <edge id="E16" sampledSeconds="0.00" departed="0" arrived="0" entered="0" left="0" laneChangedFrom="0" laneChangedTo="0"/>
        <edge id="E17" sampledSeconds="3.15" traveltime="3.15" overlapDensity="1.46" waitingTime="0.00" timeLoss="0.18" speed="11.61" speedRelative="0.84" departed="0" arrived="1" entered="1" left="0" laneChangedFrom="0" laneChangedTo="0" flow="60.00"/>
        <edge id="E18" sampledSeconds="0.00" departed="0" arrived="0" entered="0" left="0" laneChangedFrom="0" laneChangedTo="0"/>
        <edge id="E19" sampledSeconds="0.00" departed="0" arrived="0" entered="0" left="0" laneChangedFrom="0" laneChangedTo="0"/>
        <edge id="E2" sampledSeconds="13.57" traveltime="3.39" overlapDensity="5.78" waitingTime="0.00" timeLoss="2.56" speed="11.14" speedRelative="0.80" departed="0" arrived="1" entered="4" left="3" laneChangedFrom="0" laneChangedTo="0" flow="224.58"/>
        <edge id="E20" sampledSeconds="4.43" traveltime="2.22" overlapDensity="3.42" waitingTime="0.00" timeLoss="0.64" speed="11.44" speedRelative="0.82" departed="0" arrived="2" entered="2" left="0" laneChangedFrom="0" laneChangedTo="0" flow="120.00"/>
        <edge id="E21" sampledSeconds="0.00" departed="0" arrived="0" entered="0" left="0" laneChangedFrom="0" laneChangedTo="0"/>
        <edge id="E22" sampledSeconds="0.00" departed="0" arrived="0" entered="0" left="0" laneChangedFrom="0" laneChangedTo="0"/>
        <edge id="E23" sampledSeconds="0.00" departed="0" arrived="0" entered="0" left="0" laneChangedFrom="0" laneChangedTo="0"/>
        <edge id="E3" sampledSeconds="5.43" traveltime="2.72" overlapDensity="2.67" waitingTime="0.00" timeLoss="0.60" speed="13.25" speedRelative="0.95" departed="0" arrived="1" entered="2" left="1" laneChangedFrom="0" laneChangedTo="0" flow="118.44"/>
        <edge id="E4" sampledSeconds="13.18" traveltime="6.59" overlapDensity="8.10" waitingTime="0.00" timeLoss="8.82" speed="4.44" speedRelative="0.32" departed="0" arrived="1" entered="2" left="1" laneChangedFrom="0" laneChangedTo="0" flow="118.43"/>
        <edge id="E5" sampledSeconds="5.61" traveltime="5.61" overlapDensity="1.53" waitingTime="0.00" timeLoss="1.00" speed="10.11" speedRelative="0.73" departed="0" arrived="0" entered="1" left="1" laneChangedFrom="0" laneChangedTo="0" flow="55.80"/>
        <edge id="E6" sampledSeconds="9.31" traveltime="4.65" overlapDensity="2.85" waitingTime="0.00" timeLoss="1.80" speed="11.01" speedRelative="0.79" departed="0" arrived="0" entered="2" left="2" laneChangedFrom="0" laneChangedTo="0" flow="112.98"/>
        <edge id="E7" sampledSeconds="15.93" traveltime="5.31" overlapDensity="8.98" waitingTime="0.00" timeLoss="10.20" speed="4.56" speedRelative="0.33" departed="1" arrived="0" entered="2" left="3" laneChangedFrom="0" laneChangedTo="0" flow="147.27"/>
        <edge id="E8" sampledSeconds="9.27" traveltime="4.63" overlapDensity="2.63" waitingTime="0.00" timeLoss="1.19" speed="12.75" speedRelative="0.92" departed="0" arrived="1" entered="2" left="1" laneChangedFrom="0" laneChangedTo="0" flow="115.44"/>
        <edge id="E9" sampledSeconds="45.29" traveltime="15.10" overlapDensity="18.43" waitingTime="0.00" timeLoss="36.76" speed="2.44" speedRelative="0.18" departed="1" arrived="0" entered="2" left="3" laneChangedFrom="0" laneChangedTo="0" flow="162.16"/>
    </interval>
    <interval begin="60.00" end="120.00" id="edgeData">
        <edge id="-E0" sampledSeconds="15.94" traveltime="7.97" overlapDensity="4.43" waitingTime="0.00" timeLoss="6.82" speed="7.50" speedRelative="0.54" departed="0" arrived="0" entered="2" left="2" laneChangedFrom="0" laneChangedTo="0" flow="119.61"/>
        <edge id="-E1" sampledSeconds="47.28" traveltime="6.75" overlapDensity="13.48" waitingTime="0.00" timeLoss="17.97" speed="8.67" speedRelative="0.62" departed="0" arrived="2" entered="7" left="5" laneChangedFrom="0" laneChangedTo="0" flow="410.63"/>
        <edge id="-E10" sampledSeconds="31.28" traveltime="15.64" overlapDensity="8.22" waitingTime="0.00" timeLoss="22.22" speed="3.83" speedRelative="0.28" departed="0" arrived="0" entered="2" left="2" laneChangedFrom="0" laneChangedTo="0" flow="113.28"/>
        <edge id="-E11" sampledSeconds="10.51" traveltime="3.50" overlapDensity="4.52" waitingTime="0.00" timeLoss="4.15" speed="8.95" speedRelative="0.64" departed="1" arrived="0" entered="2" left="3" laneChangedFrom="0" laneChangedTo="0" flow="145.71"/>
        <edge id="-E12" sampledSeconds="10.00" traveltime="10.00" overlapDensity="5.50" waitingTime="0.00" timeLoss="8.40" speed="2.17" speedRelative="0.16" departed="1" arrived="0" entered="0" left="1" laneChangedFrom="0" laneChangedTo="0" flow="42.85"/>
        <edge id="-E13" sampledSeconds="7.00" traveltime="7.00" overlapDensity="4.19" waitingTime="0.00" timeLoss="5.83" speed="2.75" speedRelative="0.20" departed="1" arrived="0" entered="0" left="1" laneChangedFrom="0" laneChangedTo="0" flow="41.43"/>
        <edge id="-E14" sampledSeconds="4.00" traveltime="4.00" overlapDensity="2.40" waitingTime="0.00" timeLoss="2.27" speed="5.39" speedRelative="0.39" departed="1" arrived="0" entered="0" left="1" laneChangedFrom="0" laneChangedTo="0" flow="46.56"/>
        <edge id="-E15" sampledSeconds="0.00" departed="0" arrived="0" entered="0" left="0" laneChangedFrom="0" laneChangedTo="0"/>
        <edge id="-E16" sampledSeconds="0.00" departed="0" arrived="0" entered="0" left="0" laneChangedFrom="0" laneChangedTo="0"/>
        <edge id="-E17" sampledSeconds="0.00" departed="0" arrived="0" entered="0" left="0" laneChangedFrom="0" laneChangedTo="0"/>
        <edge id="-E18" sampledSeconds="3.00" traveltime="3.00" overlapDensity="1.99" waitingTime="0.00" timeLoss="2.22" speed="4.25" speedRelative="0.31" departed="1" arrived="0" entered="0" left="1" laneChangedFrom="0" laneChangedTo="0" flow="30.40"/>
        <edge id="-E19" sampledSeconds="0.00" departed="0" arrived="0" entered="0" left="0" laneChangedFrom="0" laneChangedTo="0"/>
        <edge id="-E2" sampledSeconds="65.65" traveltime="8.21" overlapDensity="27.97" waitingTime="0.00" timeLoss="42.93" speed="4.40" speedRelative="0.32" departed="2" arrived="2" entered="6" left="6" laneChangedFrom="0" laneChangedTo="0" flow="438.86"/>
        <edge id="-E20" sampledSeconds="8.00" traveltime="8.00" overlapDensity="6.18" waitingTime="0.00" timeLoss="7.07" speed="1.69" speedRelative="0.12" departed="1" arrived="0" entered="0" left="1" laneChangedFrom="0" laneChangedTo="0" flow="37.50"/>
        <edge id="-E21" sampledSeconds="5.00" traveltime="5.00" overlapDensity="5.14" waitingTime="0.00" timeLoss="4.44" speed="1.81" speedRelative="0.13" departed="1" arrived="0" entered="0" left="1" laneChangedFrom="0" laneChangedTo="0" flow="33.43"/>
        <edge id="-E22" sampledSeconds="11.00" traveltime="11.00" overlapDensity="5.50" waitingTime="0.00" timeLoss="8.89" speed="2.40" speedRelative="0.17" departed="1" arrived="0" entered="0" left="1" laneChangedFrom="0" laneChangedTo="0" flow="47.48"/>
        <edge id="-E23" sampledSeconds="0.00" departed="0" arrived="0" entered="0" left="0" laneChangedFrom="0" laneChangedTo="0"/>
        <edge id="-E3" sampledSeconds="14.41" traveltime="4.80" overlapDensity="7.07" waitingTime="0.00" timeLoss="7.32" speed="6.86" speedRelative="0.49" departed="0" arrived="2" entered="3" left="1" laneChangedFrom="0" laneChangedTo="0" flow="164.43"/>
        <edge id="-E4" sampledSeconds="19.32" traveltime="3.86" overlapDensity="11.88" waitingTime="0.00" timeLoss="12.11" speed="5.44" speedRelative="0.39" departed="1" arrived="1" entered="4" left="4" laneChangedFrom="0" laneChangedTo="0" flow="221.64"/>
        <edge id="-E5" sampledSeconds="22.77" traveltime="7.59" overlapDensity="6.22" waitingTime="0.00" timeLoss="10.76" speed="8.03" speedRelative="0.58" departed="1" arrived="2" entered="2" left="1" laneChangedFrom="0" laneChangedTo="0" flow="174.52"/>
        <edge id="-E6" sampledSeconds="13.93" traveltime="6.97" overlapDensity="4.27" waitingTime="0.00" timeLoss="6.59" speed="7.70" speedRelative="0.55" departed="0" arrived="0" entered="2" left="2" laneChangedFrom="0" laneChangedTo="0" flow="118.25"/>
        <edge id="-E7" sampledSeconds="22.37" traveltime="3.73" overlapDensity="12.61" waitingTime="0.00" timeLoss="12.13" speed="6.67" speedRelative="0.48" departed="0" arrived="0" entered="6" left="6" laneChangedFrom="0" laneChangedTo="0" flow="302.70"/>
        <edge id="-E8" sampledSeconds="49.38" traveltime="8.23" overlapDensity="13.99" waitingTime="0.00" timeLoss="22.73" speed="6.86" speedRelative="0.49" departed="1" arrived="0" entered="5" left="6" laneChangedFrom="0" laneChangedTo="0" flow="345.75"/>
        <edge id="-E9" sampledSeconds="44.12" traveltime="6.30" overlapDensity="17.95" waitingTime="0.00" timeLoss="23.81" speed="6.06" speedRelative="0.44" departed="2" arrived="2" entered="5" left="5" laneChangedFrom="0" laneChangedTo="0" flow="376.81"/>
        <edge id="E0" sampledSeconds="81.24" traveltime="13.54" overlapDensity="22.57" waitingTime="0.00" timeLoss="58.54" speed="4.11" speedRelative="0.30" departed="2" arrived="1" entered="4" left="5" laneChangedFrom="0" laneChangedTo="0" flow="329.05"/>
        <edge id="E1" sampledSeconds="10.74" traveltime="5.37" overlapDensity="3.06" waitingTime="0.00" timeLoss="2.81" speed="10.79" speedRelative="0.78" departed="0" arrived="0" entered="2" left="2" laneChangedFrom="0" laneChangedTo="0" flow="118.95"/>
        <edge id="E10" sampledSeconds="7.00" traveltime="7.00" overlapDensity="1.84" waitingTime="0.00" timeLoss="3.02" speed="7.94" speedRelative="0.57" departed="1" arrived="0" entered="0" left="1" laneChangedFrom="0" laneChangedTo="0" flow="52.59"/>
        <edge id="E11" sampledSeconds="21.98" traveltime="7.33" overlapDensity="9.46" waitingTime="0.00" timeLoss="14.42" speed="4.70" speedRelative="0.34" departed="0" arrived="0" entered="3" left="3" laneChangedFrom="0" laneChangedTo="0" flow="160.05"/>
        <edge id="E12" sampledSeconds="0.00" departed="0" arrived="0" entered="0" left="0" laneChangedFrom="0" laneChangedTo="0"/>
        <edge id="E13" sampledSeconds="3.00" traveltime="3.00" overlapDensity="1.79" waitingTime="0.00" timeLoss="0.67" speed="10.96" speedRelative="0.79" departed="0" arrived="1" entered="1" left="0" laneChangedFrom="0" laneChangedTo="0" flow="60.00"/>
        <edge id="E14" sampledSeconds="2.14" traveltime="2.14" overlapDensity="1.28" waitingTime="0.00" timeLoss="0.13" speed="15.31" speedRelative="1.10" departed="0" arrived="1" entered="1" left="0" laneChangedFrom="0" laneChangedTo="0" flow="60.00"/>
        <edge id="E15" sampledSeconds="4.44" traveltime="4.44" overlapDensity="1.75" waitingTime="0.00" timeLoss="1.21" speed="10.55" speedRelative="0.76" departed="0" arrived="1" entered="1" left="0" laneChangedFrom="0" laneChangedTo="0" flow="60.00"/>
        <edge id="E16" sampledSeconds="0.00" departed="0" arrived="0" entered="0" left="0" laneChangedFrom="0" laneChangedTo="0"/>
        <edge id="E17" sampledSeconds="0.00" departed="0" arrived="0" entered="0" left="0" laneChangedFrom="0" laneChangedTo="0"/>
        <edge id="E18" sampledSeconds="2.24" traveltime="2.24" overlapDensity="1.48" waitingTime="0.00" timeLoss="0.59" speed="11.19" speedRelative="0.81" departed="0" arrived="1" entered="1" left="0" laneChangedFrom="0" laneChangedTo="0" flow="59.78"/>
        <edge id="E19" sampledSeconds="1.69" traveltime="1.69" overlapDensity="1.54" waitingTime="0.00" timeLoss="0.01" speed="11.80" speedRelative="0.85" departed="0" arrived="1" entered="1" left="0" laneChangedFrom="0" laneChangedTo="0" flow="60.00"/>
        <edge id="E2" sampledSeconds="36.05" traveltime="6.01" overlapDensity="15.36" waitingTime="0.00" timeLoss="19.23" speed="6.39" speedRelative="0.46" departed="0" arrived="2" entered="6" left="4" laneChangedFrom="0" laneChangedTo="0" flow="339.16"/>
        <edge id="E20" sampledSeconds="2.77" traveltime="2.77" overlapDensity="2.14" waitingTime="0.00" timeLoss="0.59" speed="9.59" speedRelative="0.69" departed="0" arrived="1" entered="1" left="0" laneChangedFrom="0" laneChangedTo="0" flow="60.00"/>
        <edge id="E21" sampledSeconds="0.00" departed="0" arrived="0" entered="0" left="0" laneChangedFrom="0" laneChangedTo="0"/>
        <edge id="E22" sampledSeconds="0.00" departed="0" arrived="0" entered="0" left="0" laneChangedFrom="0" laneChangedTo="0"/>
        <edge id="E23" sampledSeconds="0.00" departed="0" arrived="0" entered="0" left="0" laneChangedFrom="0" laneChangedTo="0"/>
        <edge id="E3" sampledSeconds="58.73" traveltime="9.79" overlapDensity="28.84" waitingTime="0.00" timeLoss="45.91" speed="3.12" speedRelative="0.22" departed="2" arrived="1" entered="4" left="5" laneChangedFrom="0" laneChangedTo="0" flow="321.34"/>
        <edge id="E4" sampledSeconds="24.00" traveltime="4.80" overlapDensity="14.76" waitingTime="0.00" timeLoss="14.81" speed="5.12" speedRelative="0.37" departed="2" arrived="1" entered="3" left="4" laneChangedFrom="0" laneChangedTo="0" flow="261.15"/>
        <edge id="E5" sampledSeconds="33.22" traveltime="8.31" overlapDensity="9.08" waitingTime="0.00" timeLoss="16.09" speed="6.98" speedRelative="0.50" departed="0" arrived="0" entered="4" left="4" laneChangedFrom="0" laneChangedTo="0" flow="228.05"/>
        <edge id="E6" sampledSeconds="62.76" traveltime="8.97" overlapDensity="19.22" waitingTime="0.00" timeLoss="37.92" speed="5.55" speedRelative="0.40" departed="2" arrived="0" entered="5" left="7" laneChangedFrom="0" laneChangedTo="0" flow="384.15"/>
        <edge id="E7" sampledSeconds="9.73" traveltime="4.86" overlapDensity="5.48" waitingTime="0.00" timeLoss="6.25" speed="5.16" speedRelative="0.37" departed="0" arrived="0" entered="2" left="2" laneChangedFrom="0" laneChangedTo="0" flow="101.93"/>
        <edge id="E8" sampledSeconds="48.16" traveltime="9.63" overlapDensity="13.65" waitingTime="0.00" timeLoss="26.66" speed="6.07" speedRelative="0.44" departed="1" arrived="2" entered="4" left="3" laneChangedFrom="0" laneChangedTo="0" flow="293.54"/>
        <edge id="E9" sampledSeconds="31.84" traveltime="6.37" overlapDensity="12.95" waitingTime="0.00" timeLoss="18.30" speed="5.67" speedRelative="0.41" departed="3" arrived="1" entered="2" left="4" laneChangedFrom="0" laneChangedTo="0" flow="257.10"/>
    </interval>
    <interval begin="120.00" end="180.00" id="edgeData">
        <edge id="-E0" sampledSeconds="46.45" traveltime="11.61" overlapDensity="12.91" waitingTime="0.00" timeLoss="30.35" speed="4.81" speedRelative="0.35" departed="1" arrived="0" entered="3" left="4" laneChangedFrom="0" laneChangedTo="0" flow="223.71"/>
        <edge id="-E1" sampledSeconds="9.16" traveltime="4.58" overlapDensity="2.61" waitingTime="0.00" timeLoss="1.11" speed="12.52" speedRelative="0.90" departed="0" arrived="1" entered="2" left="1" laneChangedFrom="0" laneChangedTo="0" flow="117.50"/>
        <edge id="-E10" sampledSeconds="13.18" traveltime="6.59" overlapDensity="3.46" waitingTime="0.00" timeLoss="3.35" speed="9.57" speedRelative="0.69" departed="1" arrived="1" entered="1" left="1" laneChangedFrom="0" laneChangedTo="0" flow="114.65"/>
        <edge id="-E11" sampledSeconds="7.55" traveltime="7.55" overlapDensity="3.25" waitingTime="0.00" timeLoss="4.72" speed="4.68" speedRelative="0.34" departed="0" arrived="0" entered="1" left="1" laneChangedFrom="0" laneChangedTo="0" flow="54.75"/>
        <edge id="-E12" sampledSeconds="0.00" departed="0" arrived="0" entered="0" left="0" laneChangedFrom="0" laneChangedTo="0"/>
        <edge id="-E13" sampledSeconds="14.00" traveltime="7.00" overlapDensity="8.38" waitingTime="0.00" timeLoss="11.10" speed="2.86" speedRelative="0.21" departed="2" arrived="0" entered="0" left="2" laneChangedFrom="0" laneChangedTo="0" flow="86.28"/>
        <edge id="-E14" sampledSeconds="0.00" departed="0" arrived="0" entered="0" left="0" laneChangedFrom="0" laneChangedTo="0"/>
        <edge id="-E15" sampledSeconds="5.00" traveltime="5.00" overlapDensity="1.97" waitingTime="0.00" timeLoss="3.14" speed="5.92" speedRelative="0.43" departed="1" arrived="0" entered="0" left="1" laneChangedFrom="0" laneChangedTo="0" flow="41.93"/>
        <edge id="-E16" sampledSeconds="8.00" traveltime="8.00" overlapDensity="3.75" waitingTime="0.00" timeLoss="6.19" speed="3.31" speedRelative="0.24" departed="1" arrived="0" entered="0" left="1" laneChangedFrom="0" laneChangedTo="0" flow="44.70"/>
        <edge id="-E17" sampledSeconds="0.00" departed="0" arrived="0" entered="0" left="0" laneChangedFrom="0" laneChangedTo="0"/>
        <edge id="-E18" sampledSeconds="4.00" traveltime="4.00" overlapDensity="2.65" waitingTime="0.00" timeLoss="2.70" speed="4.71" speedRelative="0.34" departed="1" arrived="0" entered="0" left="1" laneChangedFrom="0" laneChangedTo="0" flow="44.95"/>
        <edge id="-E19" sampledSeconds="8.00" traveltime="8.00" overlapDensity="7.29" waitingTime="0.00" timeLoss="7.08" speed="1.50" speedRelative="0.11" departed="1" arrived="0" entered="0" left="1" laneChangedFrom="0" laneChangedTo="0" flow="39.47"/>
        <edge id="-E2" sampledSeconds="87.06" traveltime="12.44" overlapDensity="37.09" waitingTime="0.00" timeLoss="68.58" speed="2.98" speedRelative="0.21" departed="0" arrived="0" entered="7" left="7" laneChangedFrom="0" laneChangedTo="0" flow="397.38"/>
        <edge id="-E20" sampledSeconds="9.00" traveltime="4.50" overlapDensity="6.95" waitingTime="0.00" timeLoss="7.12" speed="2.92" speedRelative="0.21" departed="2" arrived="0" entered="0" left="2" laneChangedFrom="0" laneChangedTo="0" flow="73.09"/>
        <edge id="-E21" sampledSeconds="5.00" traveltime="2.50" overlapDensity="5.14" waitingTime="0.00" timeLoss="3.75" speed="3.60" speedRelative="0.26" departed="2" arrived="0" entered="0" left="2" laneChangedFrom="0" laneChangedTo="0" flow="66.56"/>
        <edge id="-E22" sampledSeconds="0.00" departed="0" arrived="0" entered="0" left="0" laneChangedFrom="0" laneChangedTo="0"/>
        <edge id="-E23" sampledSeconds="22.00" traveltime="7.33" overlapDensity="9.18" waitingTime="0.00" timeLoss="14.97" speed="4.30" speedRelative="0.31" departed="3" arrived="0" entered="0" left="3" laneChangedFrom="0" laneChangedTo="0" flow="142.14"/>
        <edge id="-E3" sampledSeconds="37.56" traveltime="12.52" overlapDensity="18.45" waitingTime="0.00" timeLoss="30.81" speed="2.60" speedRelative="0.19" departed="0" arrived="0" entered="3" left="3" laneChangedFrom="0" laneChangedTo="0" flow="172.63"/>
        <edge id="-E4" sampledSeconds="38.25" traveltime="9.56" overlapDensity="23.52" waitingTime="0.00" timeLoss="30.22" speed="2.78" speedRelative="0.20" departed="1" arrived="2" entered="3" left="2" laneChangedFrom="0" laneChangedTo="0" flow="215.85"/>
        <edge id="-E5" sampledSeconds="25.69" traveltime="6.42" overlapDensity="7.02" waitingTime="0.00" timeLoss="8.50" speed="8.86" speedRelative="0.64" departed="1" arrived="0" entered="3" left="4" laneChangedFrom="0" laneChangedTo="0" flow="223.87"/>
        <edge id="-E6" sampledSeconds="22.98" traveltime="5.75" overlapDensity="7.04" waitingTime="0.00" timeLoss="7.41" speed="9.50" speedRelative="0.68" departed="0" arrived="1" entered="4" left="3" laneChangedFrom="0" laneChangedTo="0" flow="235.16"/>
        <edge id="-E7" sampledSeconds="5.22" traveltime="2.61" overlapDensity="2.94" waitingTime="0.00" timeLoss="1.42" speed="9.96" speedRelative="0.72" departed="0" arrived="0" entered="2" left="2" laneChangedFrom="0" laneChangedTo="0" flow="105.53"/>
        <edge id="-E8" sampledSeconds="61.85" traveltime="7.73" overlapDensity="17.53" waitingTime="0.00" timeLoss="31.02" speed="6.94" speedRelative="0.50" departed="2" arrived="0" entered="6" left="8" laneChangedFrom="0" laneChangedTo="0" flow="437.80"/>
        <edge id="-E9" sampledSeconds="45.37" traveltime="6.48" overlapDensity="18.46" waitingTime="0.00" timeLoss="27.10" speed="5.51" speedRelative="0.40" departed="4" arrived="1" entered="3" left="6" laneChangedFrom="0" laneChangedTo="0" flow="358.83"/>
        <edge id="E0" sampledSeconds="45.25" traveltime="9.05" overlapDensity="12.57" waitingTime="0.00" timeLoss="23.91" speed="6.22" speedRelative="0.45" departed="1" arrived="1" entered="4" left="4" laneChangedFrom="0" laneChangedTo="0" flow="276.55"/>
        <edge id="E1" sampledSeconds="28.20" traveltime="7.05" overlapDensity="8.04" waitingTime="0.00" timeLoss="10.69" speed="8.07" speedRelative="0.58" departed="0" arrived="0" entered="4" left="4" laneChangedFrom="0" laneChangedTo="0" flow="233.73"/>
        <edge id="E10" sampledSeconds="26.27" traveltime="6.57" overlapDensity="6.90" waitingTime="0.00" timeLoss="8.73" speed="9.33" speedRelative="0.67" departed="0" arrived="0" entered="4" left="4" laneChangedFrom="0" laneChangedTo="0" flow="231.76"/>
        <edge id="E11" sampledSeconds="22.69" traveltime="7.56" overlapDensity="9.77" waitingTime="0.00" timeLoss="15.03" speed="4.91" speedRelative="0.35" departed="0" arrived="0" entered="3" left="3" laneChangedFrom="0" laneChangedTo="0" flow="172.48"/>