<?xml version="1.0" encoding="UTF-8"?>

<!-- generated on 2026-05-01T14:48:03.884578+09:00 by Eclipse SUMO GUI 1.26.0
<sumoConfiguration xmlns:xsi="http://www.w3.org/2001/XMLSchema-instance" xsi:noNamespaceSchemaLocation="http://sumo.dlr.de/xsd/sumoConfiguration.xsd">

    <input>
        <net-file value="C:\Users\GLAB-PC002\Desktop\sumo_project\map.net.xml"/>
        <route-files value="C:\Users\GLAB-PC002\Desktop\sumo_project\car.rou.xml"/>
        <additional-files value="C:\Users\GLAB-PC002\Desktop\sumo_project\edgeData.add.xml"/>
    </input>

    <output>
        <tripinfo-output value="C:\Users\GLAB-PC002\Desktop\sumo_project\tripinfo.xml"/>
    </output>

    <time>
        <begin value="0"/>
        <end value="500"/>
    </time>

    <traci_server>
        <remote-port value="56245"/>
    </traci_server>

</sumoConfiguration>
-->

<meandata xmlns:xsi="http://www.w3.org/2001/XMLSchema-instance" xsi:noNamespaceSchemaLocation="http://sumo.dlr.de/xsd/meandata_file.xsd">
    <interval begin="0.00" end="60.00" id="edgeData">
        <edge id="-E0" sampledSeconds="7.00" traveltime="7.00" overlapDensity="1.95" waitingTime="0.00" timeLoss="3.16" speed="7.75" speedRelative="0.56" departed="1" arrived="0" entered="0" left="1" laneChangedFrom="0" laneChangedTo="0" flow="54.30"/>
        <edge id="-E1" sampledSeconds="14.65" traveltime="14.65" overlapDensity="4.18" waitingTime="7.00" timeLoss="10.24" speed="3.92" speedRelative="0.28" departed="0" arrived="0" entered="1" left="1" laneChangedFrom="0" laneChangedTo="0" flow="58.97"/>
        <edge id="-E10" sampledSeconds="11.03" traveltime="5.52" overlapDensity="2.90" waitingTime="0.00" timeLoss="1.49" speed="11.69" speedRelative="0.84" departed="0" arrived="1" entered="2" left="1" laneChangedFrom="0" laneChangedTo="0" flow="117.26"/>
        <edge id="-E11" sampledSeconds="7.68" traveltime="3.84" overlapDensity="3.31" waitingTime="0.00" timeLoss="2.33" speed="10.40" speedRelative="0.75" departed="0" arrived="1" entered="2" left="1" laneChangedFrom="0" laneChangedTo="0" flow="119.16"/>
        <edge id="-E12" sampledSeconds="4.00" traveltime="4.00" overlapDensity="2.20" waitingTime="0.00" timeLoss="2.25" speed="5.34" speedRelative="0.38" departed="1" arrived="0" entered="0" left="1" laneChangedFrom="0" laneChangedTo="0" flow="42.22"/>
        <edge id="-E13" sampledSeconds="36.00" traveltime="36.00" overlapDensity="21.54" waitingTime="29.00" timeLoss="34.48" speed="0.60" speedRelative="0.04" departed="1" arrived="0" entered="0" left="1" laneChangedFrom="0" laneChangedTo="0" flow="46.86"/>
        <edge id="-E14" sampledSeconds="4.00" traveltime="4.00" overlapDensity="2.40" waitingTime="0.00" timeLoss="2.35" speed="5.25" speedRelative="0.38" departed="1" arrived="0" entered="0" left="1" laneChangedFrom="0" laneChangedTo="0" flow="45.33"/>
        <edge id="-E15" sampledSeconds="43.00" traveltime="14.33" overlapDensity="16.93" waitingTime="26.00" timeLoss="36.13" speed="2.30" speedRelative="0.17" departed="3" arrived="0" entered="0" left="3" laneChangedFrom="0" laneChangedTo="0" flow="140.07"/>
        <edge id="-E16" sampledSeconds="22.00" traveltime="22.00" overlapDensity="10.31" waitingTime="14.00" timeLoss="19.93" speed="1.34" speedRelative="0.10" departed="1" arrived="0" entered="0" left="1" laneChangedFrom="0" laneChangedTo="0" flow="49.71"/>
        <edge id="-E17" sampledSeconds="0.00" departed="0" arrived="0" entered="0" left="0" laneChangedFrom="0" laneChangedTo="0"/>
        <edge id="-E18" sampledSeconds="14.00" traveltime="14.00" overlapDensity="9.28" waitingTime="8.00" timeLoss="12.52" speed="1.36" speedRelative="0.10" departed="1" arrived="0" entered="0" left="1" laneChangedFrom="0" laneChangedTo="0" flow="45.44"/>
        <edge id="-E19" sampledSeconds="71.00" traveltime="17.75" overlapDensity="64.73" waitingTime="56.00" timeLoss="68.27" speed="0.56" speedRelative="0.04" departed="4" arrived="0" entered="0" left="4" laneChangedFrom="0" laneChangedTo="0" flow="130.73"/>
        <edge id="-E2" sampledSeconds="57.55" traveltime="14.39" overlapDensity="24.52" waitingTime="29.00" timeLoss="47.94" speed="2.33" speedRelative="0.17" departed="2" arrived="0" entered="2" left="4" laneChangedFrom="0" laneChangedTo="0" flow="206.01"/>
        <edge id="-E20" sampledSeconds="4.00" traveltime="4.00" overlapDensity="3.09" waitingTime="0.00" timeLoss="2.86" speed="4.01" speedRelative="0.29" departed="1" arrived="0" entered="0" left="1" laneChangedFrom="0" laneChangedTo="0" flow="44.56"/>
        <edge id="-E21" sampledSeconds="0.00" departed="0" arrived="0" entered="0" left="0" laneChangedFrom="0" laneChangedTo="0"/>
        <edge id="-E22" sampledSeconds="46.00" traveltime="23.00" overlapDensity="22.98" waitingTime="35.00" timeLoss="41.89" speed="1.10" speedRelative="0.08" departed="2" arrived="0" entered="0" left="2" laneChangedFrom="0" laneChangedTo="0" flow="90.72"/>
        <edge id="-E23" sampledSeconds="0.00" departed="0" arrived="0" entered="0" left="0" laneChangedFrom="0" laneChangedTo="0"/>
        <edge id="-E3" sampledSeconds="13.57" traveltime="4.52" overlapDensity="6.66" waitingTime="1.00" timeLoss="7.27" speed="6.87" speedRelative="0.49" departed="0" arrived="1" entered="3" left="2" laneChangedFrom="0" laneChangedTo="0" flow="155.87"/>
        <edge id="-E4" sampledSeconds="41.44" traveltime="41.44" overlapDensity="25.49" waitingTime="36.00" timeLoss="39.42" speed="0.63" speedRelative="0.05" departed="0" arrived="0" entered="1" left="1" laneChangedFrom="0" laneChangedTo="0" flow="57.78"/>
        <edge id="-E5" sampledSeconds="79.05" traveltime="39.52" overlapDensity="21.60" waitingTime="60.00" timeLoss="70.36" speed="1.42" speedRelative="0.10" departed="1" arrived="0" entered="1" left="2" laneChangedFrom="0" laneChangedTo="0" flow="110.55"/>
        <edge id="-E6" sampledSeconds="56.08" traveltime="18.69" overlapDensity="17.18" waitingTime="35.00" timeLoss="44.31" speed="2.71" speedRelative="0.20" departed="2" arrived="1" entered="1" left="2" laneChangedFrom="0" laneChangedTo="0" flow="166.65"/>
        <edge id="-E7" sampledSeconds="2.77" traveltime="2.77" overlapDensity="1.56" waitingTime="0.00" timeLoss="0.31" speed="12.48" speedRelative="0.90" departed="0" arrived="1" entered="1" left="0" laneChangedFrom="0" laneChangedTo="0" flow="60.00"/>
        <edge id="-E8" sampledSeconds="31.00" traveltime="7.75" overlapDensity="8.79" waitingTime="1.00" timeLoss="14.75" speed="6.82" speedRelative="0.49" departed="4" arrived="0" entered="0" left="4" laneChangedFrom="0" laneChangedTo="0" flow="215.56"/>
        <edge id="-E9" sampledSeconds="77.13" traveltime="38.56" overlapDensity="31.38" waitingTime="63.00" timeLoss="71.08" speed="1.00" speedRelative="0.07" departed="0" arrived="0" entered="2" left="2" laneChangedFrom="0" laneChangedTo="0" flow="112.67"/>
        <edge id="E0" sampledSeconds="29.94" traveltime="9.98" overlapDensity="8.32" waitingTime="7.00" timeLoss="17.72" speed="5.43" speedRelative="0.39" departed="2" arrived="1" entered="1" left="2" laneChangedFrom="0" laneChangedTo="0" flow="157.58"/>
        <edge id="E1" sampledSeconds="9.85" traveltime="4.92" overlapDensity="2.81" waitingTime="0.00" timeLoss="1.90" speed="11.42" speedRelative="0.82" departed="0" arrived="0" entered="2" left="2" laneChangedFrom="0" laneChangedTo="0" flow="115.48"/>
        <edge id="E10" sampledSeconds="48.97" traveltime="24.48" overlapDensity="12.87" waitingTime="33.00" timeLoss="39.90" speed="2.38" speedRelative="0.17" departed="1" arrived="0" entered="1" left="2" laneChangedFrom="0" laneChangedTo="0" flow="110.44"/>
        <edge id="E11" sampledSeconds="6.48" traveltime="3.24" overlapDensity="2.79" waitingTime="0.00" timeLoss="1.19" speed="10.04" speedRelative="0.72" departed="0" arrived="0" entered="2" left="2" laneChangedFrom="0" laneChangedTo="0" flow="100.83"/>
        <edge id="E12" sampledSeconds="0.00" departed="0" arrived="0" entered="0" left="0" laneChangedFrom="0" laneChangedTo="0"/>
        <edge id="E13" sampledSeconds="0.00" departed="0" arrived="0" entered="0" left="0" laneChangedFrom="0" laneChangedTo="0"/>
        <edge id="E14" sampledSeconds="0.00" departed="0" arrived="0" entered="0" left="0" laneChangedFrom="0" laneChangedTo="0"/>
        <edge id="E15" sampledSeconds="4.43" traveltime="4.43" overlapDensity="1.74" waitingTime="0.00" timeLoss="1.11" speed="10.69" speedRelative="0.77" departed="0" arrived="1" entered="1" left="0" laneChangedFrom="0" laneChangedTo="0" flow="60.00"/>
        <edge id="E16" sampledSeconds="0.00" departed="0" arrived="0" entered="0" left="0" laneChangedFrom="0" laneChangedTo="0"/>
        <edge id="E17" sampledSeconds="0.00" departed="0" arrived="0" entered="0" left="0" laneChangedFrom="0" laneChangedTo="0"/>
        <edge id="E18" sampledSeconds="0.00" departed="0" arrived="0" entered="0" left="0" laneChangedFrom="0" laneChangedTo="0"/>
        <edge id="E19" sampledSeconds="0.00" departed="0" arrived="0" entered="0" left="0" laneChangedFrom="0" laneChangedTo="0"/>
        <edge id="E2" sampledSeconds="35.26" traveltime="17.63" overlapDensity="15.02" waitingTime="27.00" timeLoss="29.29" speed="2.33" speedRelative="0.17" departed="0" arrived="1" entered="2" left="1" laneChangedFrom="0" laneChangedTo="0" flow="118.46"/>
        <edge id="E20" sampledSeconds="2.24" traveltime="2.24" overlapDensity="1.73" waitingTime="0.00" timeLoss="0.31" speed="11.86" speedRelative="0.85" departed="0" arrived="1" entered="1" left="0" laneChangedFrom="0" laneChangedTo="0" flow="60.00"/>
        <edge id="E21" sampledSeconds="0.00" departed="0" arrived="0" entered="0" left="0" laneChangedFrom="0" laneChangedTo="0"/>
        <edge id="E22" sampledSeconds="0.00" departed="0" arrived="0" entered="0" left="0" laneChangedFrom="0" laneChangedTo="0"/>
        <edge id="E23" sampledSeconds="0.00" departed="0" arrived="0" entered="0" left="0" laneChangedFrom="0" laneChangedTo="0"/>
        <edge id="E3" sampledSeconds="2.86" traveltime="2.86" overlapDensity="1.41" waitingTime="0.00" timeLoss="0.09" speed="13.60" speedRelative="0.98" departed="0" arrived="1" entered="1" left="0" laneChangedFrom="0" laneChangedTo="0" flow="60.00"/>
        <edge id="E4" sampledSeconds="30.69" traveltime="15.34" overlapDensity="18.87" waitingTime="20.00" timeLoss="26.52" speed="1.67" speedRelative="0.12" departed="0" arrived="0" entered="2" left="2" laneChangedFrom="0" laneChangedTo="0" flow="113.17"/>
        <edge id="E5" sampledSeconds="77.10" traveltime="38.55" overlapDensity="21.07" waitingTime="57.00" timeLoss="67.57" speed="1.51" speedRelative="0.11" departed="0" arrived="0" entered="2" left="2" laneChangedFrom="0" laneChangedTo="0" flow="114.87"/>
        <edge id="E6" sampledSeconds="39.77" traveltime="39.77" overlapDensity="12.18" waitingTime="33.00" timeLoss="36.25" speed="1.34" speedRelative="0.10" departed="0" arrived="0" entered="1" left="1" laneChangedFrom="0" laneChangedTo="0" flow="58.90"/>
        <edge id="E7" sampledSeconds="36.83" traveltime="18.42" overlapDensity="20.77" waitingTime="24.00" timeLoss="32.85" speed="1.34" speedRelative="0.10" departed="1" arrived="0" entered="1" left="2" laneChangedFrom="0" laneChangedTo="0" flow="100.08"/>
        <edge id="E8" sampledSeconds="25.02" traveltime="12.51" overlapDensity="7.09" waitingTime="12.00" timeLoss="16.71" speed="4.86" speedRelative="0.35" departed="0" arrived="1" entered="2" left="1" laneChangedFrom="0" laneChangedTo="0" flow="118.98"/>
        <edge id="E9" sampledSeconds="49.99" traveltime="16.66" overlapDensity="20.34" waitingTime="36.00" timeLoss="41.65" speed="2.17" speedRelative="0.16" departed="1" arrived="0" entered="2" left="3" laneChangedFrom="0" laneChangedTo="0" flow="158.95"/>
    </interval>
    <interval begin="60.00" end="120.00" id="edgeData">
        <edge id="-E0" sampledSeconds="11.74" traveltime="5.87" overlapDensity="3.26" waitingTime="0.00" timeLoss="3.23" speed="9.42" speedRelative="0.68" departed="0" arrived="0" entered="2" left="2" laneChangedFrom="0" laneChangedTo="0" flow="110.67"/>
        <edge id="-E1" sampledSeconds="48.29" traveltime="6.04" overlapDensity="13.77" waitingTime="0.00" timeLoss="15.45" speed="9.54" speedRelative="0.69" departed="0" arrived="3" entered="8" left="5" laneChangedFrom="0" laneChangedTo="0" flow="461.65"/>
        <edge id="-E10" sampledSeconds="36.01" traveltime="36.01" overlapDensity="9.46" waitingTime="27.00" timeLoss="31.02" speed="1.73" speedRelative="0.12" departed="0" arrived="0" entered="1" left="1" laneChangedFrom="0" laneChangedTo="0" flow="59.05"/>
        <edge id="-E11" sampledSeconds="66.96" traveltime="33.48" overlapDensity="28.82" waitingTime="53.00" timeLoss="62.36" speed="1.00" speedRelative="0.07" departed="1" arrived="0" entered="1" left="2" laneChangedFrom="0" laneChangedTo="0" flow="104.10"/>
        <edge id="-E12" sampledSeconds="17.00" traveltime="17.00" overlapDensity="9.34" waitingTime="11.00" timeLoss="15.21" speed="1.43" speedRelative="0.10" departed="1" arrived="0" entered="0" left="1" laneChangedFrom="0" laneChangedTo="0" flow="47.93"/>
        <edge id="-E13" sampledSeconds="23.00" traveltime="23.00" overlapDensity="13.76" waitingTime="16.00" timeLoss="21.67" speed="0.95" speedRelative="0.07" departed="1" arrived="0" entered="0" left="1" laneChangedFrom="0" laneChangedTo="0" flow="46.86"/>
        <edge id="-E14" sampledSeconds="4.00" traveltime="4.00" overlapDensity="2.40" waitingTime="0.00" timeLoss="2.27" speed="5.39" speedRelative="0.39" departed="1" arrived="0" entered="0" left="1" laneChangedFrom="0" laneChangedTo="0" flow="46.56"/>
        <edge id="-E15" sampledSeconds="0.00" departed="0" arrived="0" entered="0" left="0" laneChangedFrom="0" laneChangedTo="0"/>
        <edge id="-E16" sampledSeconds="0.00" departed="0" arrived="0" entered="0" left="0" laneChangedFrom="0" laneChangedTo="0"/>
        <edge id="-E17" sampledSeconds="0.00" departed="0" arrived="0" entered="0" left="0" laneChangedFrom="0" laneChangedTo="0"/>
        <edge id="-E18" sampledSeconds="41.00" traveltime="41.00" overlapDensity="27.17" waitingTime="35.00" timeLoss="39.83" speed="0.46" speedRelative="0.03" departed="1" arrived="0" entered="0" left="1" laneChangedFrom="0" laneChangedTo="0" flow="45.44"/>
        <edge id="-E19" sampledSeconds="0.00" departed="0" arrived="0" entered="0" left="0" laneChangedFrom="0" laneChangedTo="0"/>
        <edge id="-E2" sampledSeconds="82.95" traveltime="20.74" overlapDensity="35.34" waitingTime="58.00" timeLoss="72.75" speed="1.68" speedRelative="0.12" departed="2" arrived="0" entered="2" left="4" laneChangedFrom="0" laneChangedTo="0" flow="214.25"/>
        <edge id="-E20" sampledSeconds="25.00" traveltime="25.00" overlapDensity="19.30" waitingTime="20.00" timeLoss="23.93" speed="0.62" speedRelative="0.04" departed="1" arrived="0" entered="0" left="1" laneChangedFrom="0" laneChangedTo="0" flow="43.04"/>
        <edge id="-E21" sampledSeconds="27.00" traveltime="27.00" overlapDensity="27.76" waitingTime="22.00" timeLoss="26.37" speed="0.37" speedRelative="0.03" departed="1" arrived="0" entered="0" left="1" laneChangedFrom="0" laneChangedTo="0" flow="37.42"/>
        <edge id="-E22" sampledSeconds="22.00" traveltime="22.00" overlapDensity="10.99" waitingTime="16.00" timeLoss="19.82" speed="1.24" speedRelative="0.09" departed="1" arrived="0" entered="0" left="1" laneChangedFrom="0" laneChangedTo="0" flow="49.03"/>
        <edge id="-E23" sampledSeconds="0.00" departed="0" arrived="0" entered="0" left="0" laneChangedFrom="0" laneChangedTo="0"/>
        <edge id="-E3" sampledSeconds="4.13" traveltime="4.13" overlapDensity="2.03" waitingTime="0.00" timeLoss="1.18" speed="9.42" speedRelative="0.68" departed="0" arrived="1" entered="1" left="0" laneChangedFrom="0" laneChangedTo="0" flow="60.00"/>
        <edge id="-E4" sampledSeconds="34.36" traveltime="5.73" overlapDensity="21.13" waitingTime="10.00" timeLoss="22.46" speed="4.81" speedRelative="0.35" departed="1" arrived="3" entered="5" left="3" laneChangedFrom="0" laneChangedTo="0" flow="332.57"/>
        <edge id="-E5" sampledSeconds="53.32" traveltime="13.33" overlapDensity="14.57" waitingTime="16.00" timeLoss="36.28" speed="4.48" speedRelative="0.32" departed="1" arrived="1" entered="3" left="3" laneChangedFrom="0" laneChangedTo="0" flow="230.27"/>
        <edge id="-E6" sampledSeconds="10.33" traveltime="10.33" overlapDensity="3.16" waitingTime="0.00" timeLoss="6.53" speed="4.85" speedRelative="0.35" departed="0" arrived="0" entered="1" left="1" laneChangedFrom="0" laneChangedTo="0" flow="55.20"/>
        <edge id="-E7" sampledSeconds="40.76" traveltime="6.79" overlapDensity="22.98" waitingTime="9.00" timeLoss="29.08" speed="4.11" speedRelative="0.30" departed="0" arrived="0" entered="6" left="6" laneChangedFrom="0" laneChangedTo="0" flow="339.74"/>
        <edge id="-E8" sampledSeconds="178.44" traveltime="29.74" overlapDensity="50.57" waitingTime="92.00" timeLoss="152.21" speed="1.87" speedRelative="0.13" departed="1" arrived="0" entered="5" left="6" laneChangedFrom="0" laneChangedTo="0" flow="341.15"/>
        <edge id="-E9" sampledSeconds="47.77" traveltime="7.96" overlapDensity="19.44" waitingTime="12.00" timeLoss="30.49" speed="4.89" speedRelative="0.35" departed="3" arrived="2" entered="3" left="4" laneChangedFrom="0" laneChangedTo="0" flow="333.50"/>
        <edge id="E0" sampledSeconds="39.32" traveltime="6.55" overlapDensity="10.92" waitingTime="0.00" timeLoss="15.10" speed="8.73" speedRelative="0.63" departed="2" arrived="1" entered="4" left="5" laneChangedFrom="0" laneChangedTo="0" flow="338.45"/>
        <edge id="E1" sampledSeconds="5.21" traveltime="5.21" overlapDensity="1.49" waitingTime="0.00" timeLoss="1.00" speed="10.66" speedRelative="0.77" departed="0" arrived="0" entered="1" left="1" laneChangedFrom="0" laneChangedTo="0" flow="57.05"/>
        <edge id="E10" sampledSeconds="56.47" traveltime="28.23" overlapDensity="14.84" waitingTime="34.00" timeLoss="47.42" speed="2.07" speedRelative="0.15" departed="1" arrived="0" entered="1" left="2" laneChangedFrom="0" laneChangedTo="0" flow="110.82"/>
        <edge id="E11" sampledSeconds="16.48" traveltime="4.12" overlapDensity="7.10" waitingTime="0.00" timeLoss="6.24" speed="8.63" speedRelative="0.62" departed="0" arrived="0" entered="4" left="4" laneChangedFrom="0" laneChangedTo="0" flow="220.39"/>
        <edge id="E12" sampledSeconds="0.00" departed="0" arrived="0" entered="0" left="0" laneChangedFrom="0" laneChangedTo="0"/>
        <edge id="E13" sampledSeconds="5.55" traveltime="2.78" overlapDensity="3.32" waitingTime="0.00" timeLoss="0.94" speed="11.37" speedRelative="0.82" departed="0" arrived="2" entered="2" left="0" laneChangedFrom="0" laneChangedTo="0" flow="120.00"/>
        <edge id="E14" sampledSeconds="0.00" departed="0" arrived="0" entered="0" left="0" laneChangedFrom="0" laneChangedTo="0"/>
        <edge id="E15" sampledSeconds="0.00" departed="0" arrived="0" entered="0" left="0" laneChangedFrom="0" laneChangedTo="0"/>
        <edge id="E16" sampledSeconds="0.00" departed="0" arrived="0" entered="0" left="0" laneChangedFrom="0" laneChangedTo="0"/>
        <edge id="E17" sampledSeconds="3.61" traveltime="3.61" overlapDensity="1.67" waitingTime="0.00" timeLoss="0.27" speed="11.38" speedRelative="0.82" departed="0" arrived="1" entered="1" left="0" laneChangedFrom="0" laneChangedTo="0" flow="60.00"/>
        <edge id="E18" sampledSeconds="2.46" traveltime="2.46" overlapDensity="1.63" waitingTime="0.00" timeLoss="0.79" speed="10.27" speedRelative="0.74" departed="0" arrived="1" entered="1" left="0" laneChangedFrom="0" laneChangedTo="0" flow="60.00"/>
        <edge id="E19" sampledSeconds="0.00" departed="0" arrived="0" entered="0" left="0" laneChangedFrom="0" laneChangedTo="0"/>
        <edge id="E2" sampledSeconds="46.12" traveltime="6.59" overlapDensity="19.65" waitingTime="14.00" timeLoss="27.11" speed="5.71" speedRelative="0.41" departed="0" arrived="2" entered="7" left="5" laneChangedFrom="0" laneChangedTo="0" flow="398.60"/>
        <edge id="E20" sampledSeconds="5.35" traveltime="2.67" overlapDensity="4.13" waitingTime="0.00" timeLoss="1.51" speed="9.02" speedRelative="0.65" departed="0" arrived="2" entered="2" left="0" laneChangedFrom="0" laneChangedTo="0" flow="120.00"/>
        <edge id="E21" sampledSeconds="0.00" departed="0" arrived="0" entered="0" left="0" laneChangedFrom="0" laneChangedTo="0"/>
        <edge id="E22" sampledSeconds="0.00" departed="0" arrived="0" entered="0" left="0" laneChangedFrom="0" laneChangedTo="0"/>
        <edge id="E23" sampledSeconds="0.00" departed="0" arrived="0" entered="0" left="0" laneChangedFrom="0" laneChangedTo="0"/>
        <edge id="E3" sampledSeconds="76.36" traveltime="12.73" overlapDensity="37.50" waitingTime="44.00" timeLoss="64.71" speed="2.32" speedRelative="0.17" departed="2" arrived="1" entered="4" left="5" laneChangedFrom="0" laneChangedTo="0" flow="311.08"/>
        <edge id="E4" sampledSeconds="144.73" traveltime="24.12" overlapDensity="89.01" waitingTime="108.00" timeLoss="133.32" speed="1.09" speedRelative="0.08" departed="2" arrived="2" entered="4" left="4" laneChangedFrom="0" laneChangedTo="0" flow="327.93"/>
        <edge id="E5" sampledSeconds="22.20" traveltime="22.20" overlapDensity="6.07" waitingTime="13.00" timeLoss="18.60" speed="2.64" speedRelative="0.19" departed="0" arrived="0" entered="1" left="1" laneChangedFrom="0" laneChangedTo="0" flow="57.62"/>
        <edge id="E6" sampledSeconds="144.23" traveltime="20.60" overlapDensity="44.17" waitingTime="67.00" timeLoss="118.50" speed="2.46" speedRelative="0.18" departed="2" arrived="0" entered="5" left="7" laneChangedFrom="0" laneChangedTo="0" flow="390.63"/>
        <edge id="E7" sampledSeconds="6.99" traveltime="3.50" overlapDensity="3.94" waitingTime="0.00" timeLoss="2.55" speed="8.33" speedRelative="0.60" departed="0" arrived="0" entered="2" left="2" laneChangedFrom="0" laneChangedTo="0" flow="118.24"/>
        <edge id="E8" sampledSeconds="130.54" traveltime="43.51" overlapDensity="36.99" waitingTime="91.00" timeLoss="118.41" speed="1.29" speedRelative="0.09" departed="1" arrived="0" entered="2" left="3" laneChangedFrom="0" laneChangedTo="0" flow="172.16"/>
        <edge id="E9" sampledSeconds="20.18" traveltime="5.05" overlapDensity="8.21" waitingTime="0.00" timeLoss="10.32" speed="6.75" speedRelative="0.49" departed="3" arrived="0" entered="1" left="4" laneChangedFrom="0" laneChangedTo="0" flow="199.65"/>
    </interval>
    <interval begin="120.00" end="180.00" id="edgeData">
        <edge id="-E0" sampledSeconds="39.92" traveltime="9.98" overlapDensity="11.09" waitingTime="6.00" timeLoss="23.34" speed="5.80" speedRelative="0.42" departed="1" arrived="0" entered="3" left="4" laneChangedFrom="0" laneChangedTo="0" flow="231.42"/>
        <edge id="-E1" sampledSeconds="20.18" traveltime="20.18" overlapDensity="5.75" waitingTime="13.00" timeLoss="16.26" speed="2.85" speedRelative="0.20" departed="0" arrived="0" entered="1" left="1" laneChangedFrom="0" laneChangedTo="0" flow="58.97"/>
        <edge id="-E10" sampledSeconds="29.05" traveltime="14.52" overlapDensity="7.63" waitingTime="10.00" timeLoss="20.36" speed="4.07" speedRelative="0.29" departed="1" arrived="0" entered="1" left="2" laneChangedFrom="0" laneChangedTo="0" flow="111.89"/>
        <edge id="-E11" sampledSeconds="19.84" traveltime="19.84" overlapDensity="8.54" waitingTime="12.00" timeLoss="17.19" speed="1.93" speedRelative="0.14" departed="0" arrived="0" entered="1" left="1" laneChangedFrom="0" laneChangedTo="0" flow="59.32"/>
        <edge id="-E12" sampledSeconds="0.00" departed="0" arrived="0" entered="0" left="0" laneChangedFrom="0" laneChangedTo="0"/>
        <edge id="-E13" sampledSeconds="37.00" traveltime="18.50" overlapDensity="22.14" waitingTime="24.00" timeLoss="34.11" speed="1.08" speedRelative="0.08" departed="2" arrived="0" entered="0" left="2" laneChangedFrom="0" laneChangedTo="0" flow="86.23"/>
        <edge id="-E14" sampledSeconds="0.00" departed="0" arrived="0" entered="0" left="0" laneChangedFrom="0" laneChangedTo="0"/>
        <edge id="-E15" sampledSeconds="11.00" traveltime="11.00" overlapDensity="4.33" waitingTime="4.00" timeLoss="8.73" speed="3.29" speedRelative="0.24" departed="1" arrived="0" entered="0" left="1" laneChangedFrom="0" laneChangedTo="0" flow="51.35"/>
        <edge id="-E16" sampledSeconds="5.00" traveltime="5.00" overlapDensity="2.34" waitingTime="0.00" timeLoss="3.31" speed="4.95" speedRelative="0.36" departed="1" arrived="0" entered="0" left="1" laneChangedFrom="0" laneChangedTo="0" flow="41.73"/>
        <edge id="-E17" sampledSeconds="0.00" departed="0" arrived="0" entered="0" left="0" laneChangedFrom="0" laneChangedTo="0"/>
        <edge id="-E18" sampledSeconds="10.00" traveltime="10.00" overlapDensity="6.63" waitingTime="3.00" timeLoss="8.92" speed="1.57" speedRelative="0.11" departed="1" arrived="0" entered="0" left="1" laneChangedFrom="0" laneChangedTo="0" flow="37.36"/>
        <edge id="-E19" sampledSeconds="3.00" traveltime="3.00" overlapDensity="2.74" waitingTime="0.00" timeLoss="1.99" speed="4.37" speedRelative="0.31" departed="1" arrived="0" entered="0" left="1" laneChangedFrom="0" laneChangedTo="0" flow="42.99"/>
        <edge id="-E2" sampledSeconds="58.37" traveltime="5.84" overlapDensity="24.87" waitingTime="11.00" timeLoss="30.02" speed="6.32" speedRelative="0.45" departed="0" arrived="2" entered="10" left="8" laneChangedFrom="0" laneChangedTo="0" flow="550.27"/>
        <edge id="-E20" sampledSeconds="106.00" traveltime="53.00" overlapDensity="81.83" waitingTime="92.00" timeLoss="103.78" speed="0.29" speedRelative="0.02" departed="2" arrived="0" entered="0" left="2" laneChangedFrom="0" laneChangedTo="0" flow="86.09"/>
        <edge id="-E21" sampledSeconds="34.00" traveltime="17.00" overlapDensity="34.96" waitingTime="27.00" timeLoss="32.88" speed="0.47" speedRelative="0.03" departed="2" arrived="0" entered="0" left="2" laneChangedFrom="0" laneChangedTo="0" flow="59.73"/>
        <edge id="-E22" sampledSeconds="0.00" departed="0" arrived="0" entered="0" left="0" laneChangedFrom="0" laneChangedTo="0"/>
        <edge id="-E23" sampledSeconds="43.00" traveltime="14.33" overlapDensity="17.93" waitingTime="18.00" timeLoss="35.40" speed="2.38" speedRelative="0.17" departed="3" arrived="0" entered="0" left="3" laneChangedFrom="0" laneChangedTo="0" flow="153.52"/>
        <edge id="-E3" sampledSeconds="7.17" traveltime="3.59" overlapDensity="3.52" waitingTime="0.00" timeLoss="2.27" speed="9.79" speedRelative="0.71" departed="0" arrived="1" entered="2" left="1" laneChangedFrom="0" laneChangedTo="0" flow="117.54"/>
        <edge id="-E4" sampledSeconds="24.62" traveltime="8.21" overlapDensity="15.14" waitingTime="4.00" timeLoss="19.94" speed="2.85" speedRelative="0.21" departed="1" arrived="0" entered="2" left="3" laneChangedFrom="0" laneChangedTo="0" flow="155.20"/>
        <edge id="-E5" sampledSeconds="63.63" traveltime="21.21" overlapDensity="17.39" waitingTime="38.00" timeLoss="50.85" speed="2.78" speedRelative="0.20" departed="1" arrived="1" entered="2" left="2" laneChangedFrom="0" laneChangedTo="0" flow="169.35"/>
        <edge id="-E6" sampledSeconds="14.87" traveltime="14.87" overlapDensity="4.55" waitingTime="8.00" timeLoss="11.61" speed="3.59" speedRelative="0.26" departed="0" arrived="0" entered="1" left="1" laneChangedFrom="0" laneChangedTo="0" flow="58.90"/>
        <edge id="-E7" sampledSeconds="27.03" traveltime="13.52" overlapDensity="15.24" waitingTime="14.00" timeLoss="23.33" speed="2.05" speedRelative="0.15" departed="0" arrived="0" entered="2" left="2" laneChangedFrom="0" laneChangedTo="0" flow="112.68"/>
        <edge id="-E8" sampledSeconds="99.94" traveltime="16.66" overlapDensity="28.32" waitingTime="36.00" timeLoss="75.91" speed="3.34" speedRelative="0.24" departed="1" arrived="0" entered="5" left="6" laneChangedFrom="0" laneChangedTo="0" flow="340.77"/>
        <edge id="-E9" sampledSeconds="51.98" traveltime="7.43" overlapDensity="21.15" waitingTime="10.00" timeLoss="33.75" speed="4.78" speedRelative="0.34" departed="4" arrived="1" entered="3" left="6" laneChangedFrom="0" laneChangedTo="0" flow="356.65"/>
        <edge id="E0" sampledSeconds="216.00" traveltime="43.20" overlapDensity="60.02" waitingTime="151.00" timeLoss="195.63" speed="1.32" speedRelative="0.10" departed="1" arrived="0" entered="4" left="5" laneChangedFrom="0" laneChangedTo="0" flow="285.19"/>
        <edge id="E1" sampledSeconds="105.33" traveltime="26.33" overlapDensity="30.03" waitingTime="78.00" timeLoss="88.99" speed="2.08" speedRelative="0.15" departed="0" arrived="0" entered="4" left="4" laneChangedFrom="0" laneChangedTo="0" flow="224.81"/>
        <edge id="E10" sampledSeconds="49.66" traveltime="16.55" overlapDensity="13.05" waitingTime="26.00" timeLoss="36.57" speed="3.69" speedRelative="0.27" departed="0" arrived="0" entered="3" left="3" laneChangedFrom="0" laneChangedTo="0" flow="173.15"/>
        <edge id="E11" sampledSeconds="0.00" departed="0" arrived="0" entered="0" left="0" laneChangedFrom="0" laneChangedTo="0"/>
        <edge id="E12" sampledSeconds="6.54" traveltime="3.27" overlapDensity="3.59" waitingTime="0.00" timeLoss="1.50" speed="10.66" speedRelative="0.77" departed="0" arrived="2" entered="2" left="0" laneChangedFrom="0" laneChangedTo="0" flow="120.00"/>
        <edge id="E13" sampledSeconds="5.94" traveltime="2.97" overlapDensity="3.56" waitingTime="0.00" timeLoss="1.57" speed="10.79" speedRelative="0.78" departed="0" arrived="2" entered="2" left="0" laneChangedFrom="0" laneChangedTo="0" flow="120.00"/>
        <edge id="E14" sampledSeconds="2.64" traveltime="2.64" overlapDensity="1.58" waitingTime="0.00" timeLoss="0.79" speed="10.62" speedRelative="0.76" departed="0" arrived="1" entered="1" left="0" laneChangedFrom="0" laneChangedTo="0" flow="60.00"/>