<?xml version="1.0" encoding="UTF-8"?>

<!-- generated on 2026-06-25T14:33:54.577867+09:00 by Eclipse SUMO GUI 1.26.0
<sumoConfiguration xmlns:xsi="http://www.w3.org/2001/XMLSchema-instance" xsi:noNamespaceSchemaLocation="http://sumo.dlr.de/xsd/sumoConfiguration.xsd">

    <input>
        <net-file value="C:\Users\GLAB-PC002\Desktop\sumo_project\map.net.xml"/>
        <route-files value="C:\Users\GLAB-PC002\Desktop\sumo_project\car.rou.xml"/>
        <additional-files value="C:\Users\GLAB-PC002\Desktop\sumo_project\edgeData.add.xml"/>
    </input>

    <output>
        <tripinfo-output value="C:\Users\GLAB-PC002\Desktop\sumo_project\tripinfo.xml"/>
    </output>

    <time>
        <begin value="0"/>
        <end value="500"/>
    </time>

    <traci_server>
        <remote-port value="52017"/>
    </traci_server>

</sumoConfiguration>
-->

<tripinfos xmlns:xsi="http://www.w3.org/2001/XMLSchema-instance" xsi:noNamespaceSchemaLocation="http://sumo.dlr.de/xsd/tripinfo_file.xsd">
    <tripinfo id="3" depart="6.00" departLane="-E19_0" departPos="5.10" departSpeed="0.00" departDelay="0.00" arrival="20.00" arrivalLane="-E3_0" arrivalPos="33.94" arrivalSpeed="10.37" duration="14.00" routeLength="62.11" waitingTime="0.00" waitingCount="0" stopTime="0.00" timeLoss="9.25" rerouteNo="0" devices="tripinfo_3" vType="DEFAULT_VEHTYPE" speedFactor="1.08" vaporized=""/>
    <tripinfo id="9" depart="18.00" departLane="E0_0" departPos="5.10" departSpeed="0.00" departDelay="0.00" arrival="26.00" arrivalLane="E0_0" arrivalPos="59.98" arrivalSpeed="10.99" duration="8.00" routeLength="54.88" waitingTime="0.00" waitingCount="0" stopTime="0.00" timeLoss="2.59" rerouteNo="0" devices="tripinfo_9" vType="DEFAULT_VEHTYPE" speedFactor="0.86" vaporized=""/>
    <tripinfo id="2" depart="4.00" departLane="-E8_0" departPos="5.10" departSpeed="0.00" departDelay="0.00" arrival="28.00" arrivalLane="E3_0" arrivalPos="33.94" arrivalSpeed="13.83" duration="24.00" routeLength="150.38" waitingTime="0.00" waitingCount="0" stopTime="0.00" timeLoss="11.88" rerouteNo="0" devices="tripinfo_2" vType="DEFAULT_VEHTYPE" speedFactor="1.01" vaporized=""/>
    <tripinfo id="0" depart="0.00" departLane="-E6_0" departPos="5.10" departSpeed="0.00" departDelay="0.00" arrival="29.00" arrivalLane="E8_0" arrivalPos="58.81" arrivalSpeed="13.91" duration="29.00" routeLength="219.04" waitingTime="0.00" waitingCount="0" stopTime="0.00" timeLoss="12.82" rerouteNo="0" devices="tripinfo_0" vType="DEFAULT_VEHTYPE" speedFactor="1.06" vaporized=""/>
    <tripinfo id="1" depart="2.00" departLane="-E22_0" departPos="5.10" departSpeed="0.00" departDelay="0.00" arrival="33.00" arrivalLane="E20_0" arrivalPos="21.59" arrivalSpeed="12.32" duration="31.00" routeLength="250.98" waitingTime="0.00" waitingCount="0" stopTime="0.00" timeLoss="10.58" rerouteNo="0" devices="tripinfo_1" vType="DEFAULT_VEHTYPE" speedFactor="0.94" vaporized=""/>
    <tripinfo id="14" depart="28.00" departLane="E7_0" departPos="5.10" departSpeed="0.00" departDelay="0.00" arrival="38.00" arrivalLane="E20_0" arrivalPos="21.59" arrivalSpeed="13.65" duration="10.00" routeLength="61.04" waitingTime="0.00" waitingCount="0" stopTime="0.00" timeLoss="5.56" rerouteNo="0" devices="tripinfo_14" vType="DEFAULT_VEHTYPE" speedFactor="0.99" vaporized=""/>
    <tripinfo id="11" depart="22.00" departLane="-E16_0" departPos="5.10" departSpeed="0.00" departDelay="0.00" arrival="39.00" arrivalLane="E15_0" arrivalPos="42.32" arrivalSpeed="13.08" duration="17.00" routeLength="130.75" waitingTime="0.00" waitingCount="0" stopTime="0.00" timeLoss="6.52" rerouteNo="0" devices="tripinfo_11" vType="DEFAULT_VEHTYPE" speedFactor="1.03" vaporized=""/>
    <tripinfo id="18" depart="36.00" departLane="-E6_0" departPos="5.10" departSpeed="0.00" departDelay="0.00" arrival="43.00" arrivalLane="-E6_0" arrivalPos="54.42" arrivalSpeed="12.28" duration="7.00" routeLength="49.32" waitingTime="0.00" waitingCount="0" stopTime="0.00" timeLoss="2.90" rerouteNo="0" devices="tripinfo_18" vType="DEFAULT_VEHTYPE" speedFactor="0.94" vaporized=""/>
    <tripinfo id="12" depart="24.00" departLane="-E19_0" departPos="5.10" departSpeed="0.00" departDelay="0.00" arrival="45.00" arrivalLane="E13_0" arrivalPos="27.85" arrivalSpeed="11.95" duration="21.00" routeLength="158.15" waitingTime="2.00" waitingCount="1" stopTime="0.00" timeLoss="9.67" rerouteNo="0" devices="tripinfo_12" vType="DEFAULT_VEHTYPE" speedFactor="1.05" vaporized=""/>
    <tripinfo id="10" depart="20.00" departLane="-E19_0" departPos="5.10" departSpeed="0.00" departDelay="0.00" arrival="48.00" arrivalLane="E14_0" arrivalPos="27.81" arrivalSpeed="14.13" duration="28.00" routeLength="218.65" waitingTime="0.00" waitingCount="0" stopTime="0.00" timeLoss="11.88" rerouteNo="0" devices="tripinfo_10" vType="DEFAULT_VEHTYPE" speedFactor="1.09" vaporized=""/>
    <tripinfo id="13" depart="26.00" departLane="E0_0" departPos="5.10" departSpeed="0.00" departDelay="0.00" arrival="50.00" arrivalLane="-E11_0" arrivalPos="38.72" arrivalSpeed="14.97" duration="24.00" routeLength="181.19" waitingTime="2.00" waitingCount="1" stopTime="0.00" timeLoss="11.36" rerouteNo="0" devices="tripinfo_13" vType="DEFAULT_VEHTYPE" speedFactor="1.12" vaporized=""/>
    <tripinfo id="21" depart="42.00" departLane="-E20_0" departPos="5.10" departSpeed="0.00" departDelay="0.00" arrival="50.00" arrivalLane="-E7_0" arrivalPos="29.56" arrivalSpeed="13.29" duration="8.00" routeLength="60.76" waitingTime="0.00" waitingCount="0" stopTime="0.00" timeLoss="3.11" rerouteNo="0" devices="tripinfo_21" vType="DEFAULT_VEHTYPE" speedFactor="1.01" vaporized=""/>
    <tripinfo id="7" depart="14.00" departLane="E9_0" departPos="5.10" departSpeed="0.00" departDelay="0.00" arrival="59.00" arrivalLane="E17_0" arrivalPos="36.04" arrivalSpeed="12.03" duration="45.00" routeLength="273.04" waitingTime="0.00" waitingCount="0" stopTime="0.00" timeLoss="21.40" rerouteNo="0" devices="tripinfo_7" vType="DEFAULT_VEHTYPE" speedFactor="0.89" vaporized=""/>
    <tripinfo id="6" depart="12.00" departLane="-E15_0" departPos="5.10" departSpeed="0.00" departDelay="0.00" arrival="63.00" arrivalLane="E4_0" arrivalPos="27.10" arrivalSpeed="13.36" duration="51.00" routeLength="285.51" waitingTime="0.00" waitingCount="0" stopTime="0.00" timeLoss="30.10" rerouteNo="0" devices="tripinfo_6" vType="DEFAULT_VEHTYPE" speedFactor="1.05" vaporized=""/>
    <tripinfo id="26" depart="52.00" departLane="-E14_0" departPos="5.10" departSpeed="0.00" departDelay="0.00" arrival="65.00" arrivalLane="-E10_0" arrivalPos="63.43" arrivalSpeed="11.93" duration="13.00" routeLength="95.39" waitingTime="0.00" waitingCount="0" stopTime="0.00" timeLoss="4.12" rerouteNo="0" devices="tripinfo_26" vType="DEFAULT_VEHTYPE" speedFactor="0.92" vaporized=""/>
    <tripinfo id="22" depart="44.00" departLane="-E19_0" departPos="5.10" departSpeed="0.00" departDelay="0.00" arrival="67.00" arrivalLane="-E4_0" arrivalPos="27.10" arrivalSpeed="11.64" duration="23.00" routeLength="125.09" waitingTime="0.00" waitingCount="0" stopTime="0.00" timeLoss="12.11" rerouteNo="0" devices="tripinfo_22" vType="DEFAULT_VEHTYPE" speedFactor="0.97" vaporized=""/>
    <tripinfo id="20" depart="40.00" departLane="-E0_0" departPos="5.10" departSpeed="0.00" departDelay="0.00" arrival="70.00" arrivalLane="E13_0" arrivalPos="27.85" arrivalSpeed="13.27" duration="30.00" routeLength="214.95" waitingTime="0.00" waitingCount="0" stopTime="0.00" timeLoss="12.82" rerouteNo="0" devices="tripinfo_20" vType="DEFAULT_VEHTYPE" speedFactor="1.02" vaporized=""/>
    <tripinfo id="4" depart="8.00" departLane="-E13_0" departPos="5.10" departSpeed="0.00" departDelay="0.00" arrival="71.00" arrivalLane="-E1_0" arrivalPos="58.45" arrivalSpeed="5.22" duration="63.00" routeLength="216.56" waitingTime="0.00" waitingCount="0" stopTime="0.00" timeLoss="45.07" rerouteNo="0" devices="tripinfo_4" vType="DEFAULT_VEHTYPE" speedFactor="1.03" vaporized=""/>
    <tripinfo id="15" depart="30.00" departLane="-E18_0" departPos="5.10" departSpeed="0.00" departDelay="0.00" arrival="72.00" arrivalLane="E13_0" arrivalPos="27.85" arrivalSpeed="12.77" duration="42.00" routeLength="227.03" waitingTime="0.00" waitingCount="0" stopTime="0.00" timeLoss="22.42" rerouteNo="0" devices="tripinfo_15" vType="DEFAULT_VEHTYPE" speedFactor="0.93" vaporized=""/>
    <tripinfo id="8" depart="16.00" departLane="-E15_0" departPos="5.10" departSpeed="0.00" departDelay="0.00" arrival="75.00" arrivalLane="E2_0" arrivalPos="39.12" arrivalSpeed="12.20" duration="59.00" routeLength="207.17" waitingTime="0.00" waitingCount="0" stopTime="0.00" timeLoss="40.76" rerouteNo="0" devices="tripinfo_8" vType="DEFAULT_VEHTYPE" speedFactor="0.94" vaporized=""/>
    <tripinfo id="16" depart="32.00" departLane="-E12_0" departPos="5.10" departSpeed="0.00" departDelay="0.00" arrival="80.00" arrivalLane="E20_0" arrivalPos="21.59" arrivalSpeed="10.17" duration="48.00" routeLength="297.74" waitingTime="0.00" waitingCount="0" stopTime="0.00" timeLoss="22.07" rerouteNo="0" devices="tripinfo_16" vType="DEFAULT_VEHTYPE" speedFactor="0.88" vaporized=""/>
    <tripinfo id="17" depart="34.00" departLane="-E8_0" departPos="5.10" departSpeed="0.00" departDelay="0.00" arrival="81.00" arrivalLane="-E9_0" arrivalPos="40.96" arrivalSpeed="4.90" duration="47.00" routeLength="221.17" waitingTime="0.00" waitingCount="0" stopTime="0.00" timeLoss="28.56" rerouteNo="0" devices="tripinfo_17" vType="DEFAULT_VEHTYPE" speedFactor="0.94" vaporized=""/>
    <tripinfo id="31" depart="62.00" departLane="-E21_0" departPos="5.10" departSpeed="0.00" departDelay="0.00" arrival="83.00" arrivalLane="-E9_0" arrivalPos="40.96" arrivalSpeed="8.24" duration="21.00" routeLength="108.12" waitingTime="0.00" waitingCount="0" stopTime="0.00" timeLoss="13.66" rerouteNo="0" devices="tripinfo_31" vType="DEFAULT_VEHTYPE" speedFactor="1.15" vaporized=""/>
    <tripinfo id="5" depart="10.00" departLane="E10_0" departPos="5.10" departSpeed="0.00" departDelay="0.00" arrival="90.00" arrivalLane="-E4_0" arrivalPos="27.10" arrivalSpeed="6.20" duration="80.00" routeLength="327.16" waitingTime="0.00" waitingCount="0" stopTime="0.00" timeLoss="48.94" rerouteNo="0" devices="tripinfo_5" vType="DEFAULT_VEHTYPE" speedFactor="0.83" vaporized=""/>
    <tripinfo id="19" depart="38.00" departLane="-E2_0" departPos="5.10" departSpeed="0.00" departDelay="0.00" arrival="93.00" arrivalLane="-E4_0" arrivalPos="27.10" arrivalSpeed="9.42" duration="55.00" routeLength="188.92" waitingTime="1.00" waitingCount="1" stopTime="0.00" timeLoss="41.37" rerouteNo="0" devices="tripinfo_19" vType="DEFAULT_VEHTYPE" speedFactor="1.16" vaporized=""/>
    <tripinfo id="45" depart="90.00" departLane="E3_0" departPos="5.10" departSpeed="0.00" departDelay="0.00" arrival="95.00" arrivalLane="E3_0" arrivalPos="33.94" arrivalSpeed="9.49" duration="5.00" routeLength="28.84" waitingTime="0.00" waitingCount="0" stopTime="0.00" timeLoss="3.08" rerouteNo="0" devices="tripinfo_45" vType="DEFAULT_VEHTYPE" speedFactor="1.09" vaporized=""/>
    <tripinfo id="42" depart="84.00" departLane="-E5_0" departPos="5.10" departSpeed="0.00" departDelay="0.00" arrival="96.00" arrivalLane="E18_0" arrivalPos="25.15" arrivalSpeed="13.82" duration="12.00" routeLength="95.28" waitingTime="0.00" waitingCount="0" stopTime="0.00" timeLoss="4.42" rerouteNo="0" devices="tripinfo_42" vType="DEFAULT_VEHTYPE" speedFactor="1.09" vaporized=""/>
    <tripinfo id="27" depart="54.00" departLane="-E2_0" departPos="5.10" departSpeed="0.00" departDelay="0.00" arrival="101.00" arrivalLane="-E3_0" arrivalPos="33.94" arrivalSpeed="12.32" duration="47.00" routeLength="252.82" waitingTime="0.00" waitingCount="0" stopTime="0.00" timeLoss="25.22" rerouteNo="0" devices="tripinfo_27" vType="DEFAULT_VEHTYPE" speedFactor="0.95" vaporized=""/>
    <tripinfo id="28" depart="56.00" departLane="-E15_0" departPos="5.10" departSpeed="0.00" departDelay="0.00" arrival="101.00" arrivalLane="E2_0" arrivalPos="39.12" arrivalSpeed="14.83" duration="45.00" routeLength="207.17" waitingTime="0.00" waitingCount="0" stopTime="0.00" timeLoss="29.37" rerouteNo="0" devices="tripinfo_28" vType="DEFAULT_VEHTYPE" speedFactor="1.13" vaporized=""/>
    <tripinfo id="33" depart="67.00" departLane="E4_0" departPos="5.10" departSpeed="0.00" departDelay="1.00" arrival="106.00" arrivalLane="E14_0" arrivalPos="27.81" arrivalSpeed="15.02" duration="39.00" routeLength="307.55" waitingTime="0.00" waitingCount="0" stopTime="0.00" timeLoss="18.73" rerouteNo="0" devices="tripinfo_33" vType="DEFAULT_VEHTYPE" speedFactor="1.17" vaporized=""/>
    <tripinfo id="39" depart="78.00" departLane="-E14_0" departPos="5.10" departSpeed="0.00" departDelay="0.00" arrival="112.00" arrivalLane="E8_0" arrivalPos="58.81" arrivalSpeed="11.22" duration="34.00" routeLength="168.76" waitingTime="0.00" waitingCount="0" stopTime="0.00" timeLoss="18.86" rerouteNo="0" devices="tripinfo_39" vType="DEFAULT_VEHTYPE" speedFactor="0.90" vaporized=""/>
    <tripinfo id="24" depart="48.00" departLane="-E22_0" departPos="5.10" departSpeed="0.00" departDelay="0.00" arrival="113.00" arrivalLane="-E2_0" arrivalPos="39.12" arrivalSpeed="10.62" duration="65.00" routeLength="199.75" waitingTime="0.00" waitingCount="0" stopTime="0.00" timeLoss="44.94" rerouteNo="0" devices="tripinfo_24" vType="DEFAULT_VEHTYPE" speedFactor="0.83" vaporized=""/>
    <tripinfo id="23" depart="46.00" departLane="-E5_0" departPos="5.10" departSpeed="0.00" departDelay="0.00" arrival="115.00" arrivalLane="-E2_0" arrivalPos="39.12" arrivalSpeed="12.07" duration="69.00" routeLength="264.10" waitingTime="0.00" waitingCount="0" stopTime="0.00" timeLoss="44.52" rerouteNo="0" devices="tripinfo_23" vType="DEFAULT_VEHTYPE" speedFactor="0.89" vaporized=""/>
    <tripinfo id="29" depart="62.00" departLane="-E8_0" departPos="5.10" departSpeed="0.00" departDelay="4.00" arrival="116.00" arrivalLane="E4_0" arrivalPos="27.10" arrivalSpeed="8.05" duration="54.00" routeLength="212.66" waitingTime="0.00" waitingCount="0" stopTime="0.00" timeLoss="34.50" rerouteNo="0" devices="tripinfo_29" vType="DEFAULT_VEHTYPE" speedFactor="0.93" vaporized=""/>
    <tripinfo id="34" depart="68.00" departLane="E6_0" departPos="5.10" departSpeed="0.00" departDelay="0.00" arrival="117.00" arrivalLane="E2_0" arrivalPos="39.12" arrivalSpeed="12.97" duration="49.00" routeLength="214.85" waitingTime="0.00" waitingCount="0" stopTime="0.00" timeLoss="30.70" rerouteNo="0" devices="tripinfo_34" vType="DEFAULT_VEHTYPE" speedFactor="0.99" vaporized=""/>
    <tripinfo id="36" depart="72.00" departLane="-E12_0" departPos="5.10" departSpeed="0.00" departDelay="0.00" arrival="121.00" arrivalLane="E0_0" arrivalPos="59.98" arrivalSpeed="5.62" duration="49.00" routeLength="155.03" waitingTime="0.00" waitingCount="0" stopTime="0.00" timeLoss="36.55" rerouteNo="0" devices="tripinfo_36" vType="DEFAULT_VEHTYPE" speedFactor="0.97" vaporized=""/>
    <tripinfo id="40" depart="80.00" departLane="E0_0" departPos="5.10" departSpeed="0.00" departDelay="0.00" arrival="121.00" arrivalLane="-E5_0" arrivalPos="60.98" arrivalSpeed="13.72" duration="41.00" routeLength="167.89" waitingTime="0.00" waitingCount="0" stopTime="0.00" timeLoss="27.42" rerouteNo="0" devices="tripinfo_40" vType="DEFAULT_VEHTYPE" speedFactor="1.03" vaporized=""/>
    <tripinfo id="30" depart="60.00" departLane="-E13_0" departPos="5.10" departSpeed="0.00" departDelay="0.00" arrival="124.00" arrivalLane="-E3_0" arrivalPos="33.94" arrivalSpeed="12.83" duration="64.00" routeLength="295.17" waitingTime="0.00" waitingCount="0" stopTime="0.00" timeLoss="43.57" rerouteNo="0" devices="tripinfo_30" vType="DEFAULT_VEHTYPE" speedFactor="1.18" vaporized=""/>
    <tripinfo id="50" depart="100.00" departLane="-E2_0" departPos="5.10" departSpeed="0.00" departDelay="0.00" arrival="125.00" arrivalLane="E19_0" arrivalPos="18.28" arrivalSpeed="11.48" duration="25.00" routeLength="115.28" waitingTime="0.00" waitingCount="0" stopTime="0.00" timeLoss="14.70" rerouteNo="0" devices="tripinfo_50" vType="DEFAULT_VEHTYPE" speedFactor="0.85" vaporized=""/>
    <tripinfo id="44" depart="88.00" departLane="-E20_0" departPos="5.10" departSpeed="0.00" departDelay="0.00" arrival="126.00" arrivalLane="E15_0" arrivalPos="42.32" arrivalSpeed="13.82" duration="38.00" routeLength="166.89" waitingTime="0.00" waitingCount="0" stopTime="0.00" timeLoss="25.44" rerouteNo="0" devices="tripinfo_44" vType="DEFAULT_VEHTYPE" speedFactor="1.04" vaporized=""/>
    <tripinfo id="37" depart="74.00" departLane="-E4_0" departPos="5.10" departSpeed="0.00" departDelay="0.00" arrival="130.00" arrivalLane="-E5_0" arrivalPos="60.98" arrivalSpeed="16.34" duration="56.00" routeLength="204.43" waitingTime="0.00" waitingCount="0" stopTime="0.00" timeLoss="41.30" rerouteNo="0" devices="tripinfo_37" vType="DEFAULT_VEHTYPE" speedFactor="1.18" vaporized=""/>
    <tripinfo id="38" depart="76.00" departLane="E3_0" departPos="5.10" departSpeed="0.00" departDelay="0.00" arrival="130.00" arrivalLane="-E1_0" arrivalPos="58.45" arrivalSpeed="9.40" duration="54.00" routeLength="215.03" waitingTime="0.00" waitingCount="0" stopTime="0.00" timeLoss="37.42" rerouteNo="0" devices="tripinfo_38" vType="DEFAULT_VEHTYPE" speedFactor="1.10" vaporized=""/>
    <tripinfo id="35" depart="72.00" departLane="-E2_0" departPos="5.10" departSpeed="0.00" departDelay="2.00" arrival="135.00" arrivalLane="-E1_0" arrivalPos="58.45" arrivalSpeed="13.34" duration="63.00" routeLength="268.59" waitingTime="0.00" waitingCount="0" stopTime="0.00" timeLoss="40.90" rerouteNo="0" devices="tripinfo_35" vType="DEFAULT_VEHTYPE" speedFactor="1.02" vaporized=""/>
    <tripinfo id="60" depart="120.00" departLane="-E21_0" departPos="5.10" departSpeed="0.00" departDelay="0.00" arrival="137.00" arrivalLane="E5_0" arrivalPos="60.98" arrivalSpeed="14.96" duration="17.00" routeLength="86.71" waitingTime="0.00" waitingCount="0" stopTime="0.00" timeLoss="10.52" rerouteNo="0" devices="tripinfo_60" vType="DEFAULT_VEHTYPE" speedFactor="1.08" vaporized=""/>
    <tripinfo id="48" depart="96.00" departLane="-E8_0" departPos="5.10" departSpeed="0.00" departDelay="0.00" arrival="140.00" arrivalLane="E16_0" arrivalPos="35.57" arrivalSpeed="12.13" duration="44.00" routeLength="225.02" waitingTime="0.00" waitingCount="0" stopTime="0.00" timeLoss="23.96" rerouteNo="0" devices="tripinfo_48" vType="DEFAULT_VEHTYPE" speedFactor="0.88" vaporized=""/>
    <tripinfo id="53" depart="106.00" departLane="-E9_0" departPos="5.10" departSpeed="0.00" departDelay="0.00" arrival="140.00" arrivalLane="E13_0" arrivalPos="27.85" arrivalSpeed="13.27" duration="34.00" routeLength="145.93" waitingTime="0.00" waitingCount="0" stopTime="0.00" timeLoss="22.21" rerouteNo="0" devices="tripinfo_53" vType="DEFAULT_VEHTYPE" speedFactor="1.10" vaporized=""/>
    <tripinfo id="51" depart="102.00" departLane="-E18_0" departPos="5.10" departSpeed="0.00" departDelay="0.00" arrival="153.00" arrivalLane="E2_0" arrivalPos="39.12" arrivalSpeed="13.54" duration="51.00" routeLength="184.60" waitingTime="0.00" waitingCount="0" stopTime="0.00" timeLoss="37.96" rerouteNo="0" devices="tripinfo_51" vType="DEFAULT_VEHTYPE" speedFactor="1.17" vaporized=""/>
    <tripinfo id="46" depart="93.00" departLane="E9_0" departPos="5.10" departSpeed="0.00" departDelay="1.00" arrival="156.00" arrivalLane="-E1_0" arrivalPos="58.45" arrivalSpeed="13.57" duration="63.00" routeLength="339.62" waitingTime="0.00" waitingCount="0" stopTime="0.00" timeLoss="36.10" rerouteNo="0" devices="tripinfo_46" vType="DEFAULT_VEHTYPE" speedFactor="1.00" vaporized=""/>
    <tripinfo id="57" depart="114.00" departLane="E8_0" departPos="5.10" departSpeed="0.00" departDelay="0.00" arrival="156.00" arrivalLane="E4_0" arrivalPos="27.10" arrivalSpeed="15.33" duration="42.00" routeLength="150.50" waitingTime="0.00" waitingCount="0" stopTime="0.00" timeLoss="31.98" rerouteNo="0" devices="tripinfo_57" vType="DEFAULT_VEHTYPE" speedFactor="1.14" vaporized=""/>
    <tripinfo id="58" depart="117.00" departLane="E8_0" departPos="5.10" departSpeed="0.00" departDelay="1.00" arrival="158.00" arrivalLane="E9_0" arrivalPos="40.96" arrivalSpeed="9.90" duration="41.00" routeLength="108.87" waitingTime="2.00" waitingCount="1" stopTime="0.00" timeLoss="32.14" rerouteNo="0" devices="tripinfo_58" vType="DEFAULT_VEHTYPE" speedFactor="1.02" vaporized=""/>
    <tripinfo id="61" depart="122.00" departLane="-E13_0" departPos="5.10" departSpeed="0.00" departDelay="0.00" arrival="158.00" arrivalLane="E19_0" arrivalPos="18.28" arrivalSpeed="11.25" duration="36.00" routeLength="157.63" waitingTime="0.00" waitingCount="0" stopTime="0.00" timeLoss="25.22" rerouteNo="0" devices="tripinfo_61" vType="DEFAULT_VEHTYPE" speedFactor="1.12" vaporized=""/>
    <tripinfo id="25" depart="50.00" departLane="-E8_0" departPos="5.10" departSpeed="0.00" departDelay="0.00" arrival="160.00" arrivalLane="E9_0" arrivalPos="40.96" arrivalSpeed="11.50" duration="110.00" routeLength="424.16" waitingTime="0.00" waitingCount="0" stopTime="0.00" timeLoss="70.32" rerouteNo="0" devices="tripinfo_25" vType="DEFAULT_VEHTYPE" speedFactor="0.87" vaporized=""/>
    <tripinfo id="43" depart="86.00" departLane="E0_0" departPos="5.10" departSpeed="0.00" departDelay="0.00" arrival="160.00" arrivalLane="E12_0" arrivalPos="30.33" arrivalSpeed="13.68" duration="74.00" routeLength="220.86" waitingTime="0.00" waitingCount="0" stopTime="0.00" timeLoss="56.00" rerouteNo="0" devices="tripinfo_43" vType="DEFAULT_VEHTYPE" speedFactor="1.04" vaporized=""/>
    <tripinfo id="55" depart="110.00" departLane="E9_0" departPos="5.10" departSpeed="0.00" departDelay="0.00" arrival="161.00" arrivalLane="E6_0" arrivalPos="54.42" arrivalSpeed="9.31" duration="51.00" routeLength="222.28" waitingTime="0.00" waitingCount="0" stopTime="0.00" timeLoss="33.65" rerouteNo="0" devices="tripinfo_55" vType="DEFAULT_VEHTYPE" speedFactor="1.00" vaporized=""/>
    <tripinfo id="66" depart="132.00" departLane="-E23_0" departPos="5.10" departSpeed="0.00" departDelay="0.00" arrival="161.00" arrivalLane="E22_0" arrivalPos="33.36" arrivalSpeed="12.22" duration="29.00" routeLength="127.66" waitingTime="0.00" waitingCount="0" stopTime="0.00" timeLoss="16.71" rerouteNo="0" devices="tripinfo_66" vType="DEFAULT_VEHTYPE" speedFactor="0.91" vaporized=""/>
    <tripinfo id="67" depart="139.00" departLane="-E9_0" departPos="5.10" departSpeed="0.00" departDelay="5.00" arrival="162.00" arrivalLane="E23_0" arrivalPos="39.96" arrivalSpeed="12.64" duration="23.00" routeLength="90.17" waitingTime="0.00" waitingCount="0" stopTime="0.00" timeLoss="14.05" rerouteNo="0" devices="tripinfo_67" vType="DEFAULT_VEHTYPE" speedFactor="0.91" vaporized=""/>
    <tripinfo id="64" depart="128.00" departLane="-E19_0" departPos="5.10" departSpeed="0.00" departDelay="0.00" arrival="163.00" arrivalLane="E17_0" arrivalPos="36.04" arrivalSpeed="12.73" duration="35.00" routeLength="128.65" waitingTime="0.00" waitingCount="0" stopTime="0.00" timeLoss="23.97" rerouteNo="0" devices="tripinfo_64" vType="DEFAULT_VEHTYPE" speedFactor="0.94" vaporized=""/>
    <tripinfo id="41" depart="82.00" departLane="E6_0" departPos="5.10" departSpeed="0.00" departDelay="0.00" arrival="169.00" arrivalLane="E12_0" arrivalPos="30.33" arrivalSpeed="12.66" duration="87.00" routeLength="336.06" waitingTime="2.00" waitingCount="1" stopTime="0.00" timeLoss="58.98" rerouteNo="0" devices="tripinfo_41" vType="DEFAULT_VEHTYPE" speedFactor="0.96" vaporized=""/>
    <tripinfo id="49" depart="98.00" departLane="-E9_0" departPos="5.10" departSpeed="0.00" departDelay="0.00" arrival="169.00" arrivalLane="-E4_0" arrivalPos="27.10" arrivalSpeed="10.79" duration="71.00" routeLength="306.97" waitingTime="0.00" waitingCount="0" stopTime="0.00" timeLoss="40.92" rerouteNo="0" devices="tripinfo_49" vType="DEFAULT_VEHTYPE" speedFactor="0.85" vaporized=""/>
    <tripinfo id="83" depart="166.00" departLane="-E9_0" departPos="5.10" departSpeed="0.00" departDelay="0.00" arrival="172.00" arrivalLane="-E9_0" arrivalPos="40.96" arrivalSpeed="12.29" duration="6.00" routeLength="35.86" waitingTime="0.00" waitingCount="0" stopTime="0.00" timeLoss="2.69" rerouteNo="0" devices="tripinfo_83" vType="DEFAULT_VEHTYPE" speedFactor="0.97" vaporized=""/>
    <tripinfo id="32" depart="67.00" departLane="E10_0" departPos="5.10" departSpeed="0.00" departDelay="3.00" arrival="176.00" arrivalLane="E8_0" arrivalPos="58.81" arrivalSpeed="3.92" duration="109.00" routeLength="295.67" waitingTime="0.00" waitingCount="0" stopTime="0.00" timeLoss="84.53" rerouteNo="0" devices="tripinfo_32" vType="DEFAULT_VEHTYPE" speedFactor="1.01" vaporized=""/>
    <tripinfo id="56" depart="112.00" departLane="-E22_0" departPos="5.10" departSpeed="0.00" departDelay="0.00" arrival="176.00" arrivalLane="-E10_0" arrivalPos="63.43" arrivalSpeed="12.39" duration="64.00" routeLength="307.12" waitingTime="0.00" waitingCount="0" stopTime="0.00" timeLoss="37.20" rerouteNo="0" devices="tripinfo_56" vType="DEFAULT_VEHTYPE" speedFactor="0.90" vaporized=""/>
    <tripinfo id="59" depart="118.00" departLane="-E9_0" departPos="5.10" departSpeed="0.00" departDelay="0.00" arrival="180.00" arrivalLane="-E4_0" arrivalPos="27.10" arrivalSpeed="12.43" duration="62.00" routeLength="306.97" waitingTime="0.00" waitingCount="0" stopTime="0.00" timeLoss="34.85" rerouteNo="0" devices="tripinfo_59" vType="DEFAULT_VEHTYPE" speedFactor="0.97" vaporized=""/>
    <tripinfo id="47" depart="94.00" departLane="E4_0" departPos="5.10" departSpeed="0.00" departDelay="0.00" arrival="184.00" arrivalLane="E23_0" arrivalPos="39.96" arrivalSpeed="12.01" duration="90.00" routeLength="326.97" waitingTime="0.00" waitingCount="0" stopTime="0.00" timeLoss="60.48" rerouteNo="0" devices="tripinfo_47" vType="DEFAULT_VEHTYPE" speedFactor="0.90" vaporized=""/>
    <tripinfo id="65" depart="130.00" departLane="-E13_0" departPos="5.10" departSpeed="0.00" departDelay="0.00" arrival="188.00" arrivalLane="E0_0" arrivalPos="59.98" arrivalSpeed="12.15" duration="58.00" routeLength="220.09" waitingTime="2.00" waitingCount="1" stopTime="0.00" timeLoss="37.25" rerouteNo="0" devices="tripinfo_65" vType="DEFAULT_VEHTYPE" speedFactor="0.88" vaporized=""/>
    <tripinfo id="52" depart="104.00" departLane="E9_0" departPos="5.10" departSpeed="0.00" departDelay="0.00" arrival="193.00" arrivalLane="E23_0" arrivalPos="39.96" arrivalSpeed="13.58" duration="89.00" routeLength="291.18" waitingTime="0.00" waitingCount="0" stopTime="0.00" timeLoss="65.82" rerouteNo="0" devices="tripinfo_52" vType="DEFAULT_VEHTYPE" speedFactor="1.02" vaporized=""/>
    <tripinfo id="71" depart="144.00" departLane="E8_0" departPos="5.10" departSpeed="0.00" departDelay="2.00" arrival="197.00" arrivalLane="E22_0" arrivalPos="33.36" arrivalSpeed="12.26" duration="53.00" routeLength="151.35" waitingTime="0.00" waitingCount="0" stopTime="0.00" timeLoss="39.54" rerouteNo="0" devices="tripinfo_71" vType="DEFAULT_VEHTYPE" speedFactor="0.97" vaporized=""/>
    <tripinfo id="70" depart="140.00" departLane="-E4_0" departPos="5.10" departSpeed="0.00" departDelay="0.00" arrival="207.00" arrivalLane="E18_0" arrivalPos="25.15" arrivalSpeed="13.39" duration="67.00" routeLength="243.83" waitingTime="0.00" waitingCount="0" stopTime="0.00" timeLoss="46.93" rerouteNo="0" devices="tripinfo_70" vType="DEFAULT_VEHTYPE" speedFactor="1.02" vaporized=""/>
    <tripinfo id="62" depart="124.00" departLane="-E9_0" departPos="5.10" departSpeed="0.00" departDelay="0.00" arrival="212.00" arrivalLane="E7_0" arrivalPos="29.56" arrivalSpeed="5.82" duration="88.00" routeLength="273.90" waitingTime="1.00" waitingCount="1" stopTime="0.00" timeLoss="67.18" rerouteNo="0" devices="tripinfo_62" vType="DEFAULT_VEHTYPE" speedFactor="1.02" vaporized=""/>
    <tripinfo id="85" depart="170.00" departLane="-E20_0" departPos="5.10" departSpeed="0.00" departDelay="0.00" arrival="215.00" arrivalLane="-E0_0" arrivalPos="59.98" arrivalSpeed="9.77" duration="45.00" routeLength="208.31" waitingTime="0.00" waitingCount="0" stopTime="0.00" timeLoss="28.59" rerouteNo="0" devices="tripinfo_85" vType="DEFAULT_VEHTYPE" speedFactor="0.98" vaporized=""/>
    <tripinfo id="73" depart="146.00" departLane="-E16_0" departPos="5.10" departSpeed="0.00" departDelay="0.00" arrival="217.00" arrivalLane="E12_0" arrivalPos="30.33" arrivalSpeed="13.39" duration="71.00" routeLength="273.23" waitingTime="0.00" waitingCount="0" stopTime="0.00" timeLoss="51.17" rerouteNo="0" devices="tripinfo_73" vType="DEFAULT_VEHTYPE" speedFactor="1.06" vaporized=""/>
    <tripinfo id="80" depart="160.00" departLane="-E20_0" departPos="5.10" departSpeed="0.00" departDelay="0.00" arrival="218.00" arrivalLane="E7_0" arrivalPos="29.56" arrivalSpeed="11.85" duration="58.00" routeLength="234.50" waitingTime="0.00" waitingCount="0" stopTime="0.00" timeLoss="38.80" rerouteNo="0" devices="tripinfo_80" vType="DEFAULT_VEHTYPE" speedFactor="1.03" vaporized=""/>
    <tripinfo id="78" depart="156.00" departLane="-E21_0" departPos="5.10" departSpeed="0.00" departDelay="0.00" arrival="220.00" arrivalLane="E13_0" arrivalPos="27.85" arrivalSpeed="13.63" duration="64.00" routeLength="231.14" waitingTime="1.00" waitingCount="1" stopTime="0.00" timeLoss="46.18" rerouteNo="0" devices="tripinfo_78" vType="DEFAULT_VEHTYPE" speedFactor="1.01" vaporized=""/>
    <tripinfo id="87" depart="174.00" departLane="E9_0" departPos="5.10" departSpeed="0.00" departDelay="0.00" arrival="220.00" arrivalLane="E8_0" arrivalPos="58.81" arrivalSpeed="13.69" duration="46.00" routeLength="236.72" waitingTime="0.00" waitingCount="0" stopTime="0.00" timeLoss="27.55" rerouteNo="0" devices="tripinfo_87" vType="DEFAULT_VEHTYPE" speedFactor="1.04" vaporized=""/>