<?xml version="1.0" encoding="UTF-8"?>

<!-- generated on 2026-05-26T15:23:15.146814+09:00 by Eclipse SUMO GUI 1.26.0
<sumoConfiguration xmlns:xsi="http://www.w3.org/2001/XMLSchema-instance" xsi:noNamespaceSchemaLocation="http://sumo.dlr.de/xsd/sumoConfiguration.xsd">

    <input>
        <net-file value="C:\Users\GLAB-PC002\Desktop\sumo_project\map.net.xml"/>
        <route-files value="C:\Users\GLAB-PC002\Desktop\sumo_project\car.rou.xml"/>
        <additional-files value="C:\Users\GLAB-PC002\Desktop\sumo_project\edgeData.add.xml"/>
    </input>

    <output>
        <tripinfo-output value="C:\Users\GLAB-PC002\Desktop\sumo_project\tripinfo.xml"/>
    </output>

    <time>
        <begin value="0"/>
        <end value="500"/>
    </time>

    <traci_server>
        <remote-port value="55503"/>
    </traci_server>

</sumoConfiguration>
-->

<tripinfos xmlns:xsi="http://www.w3.org/2001/XMLSchema-instance" xsi:noNamespaceSchemaLocation="http://sumo.dlr.de/xsd/tripinfo_file.xsd">
    <tripinfo id="2" depart="4.00" departLane="-E8_0" departPos="5.10" departSpeed="0.00" departDelay="0.00" arrival="21.00" arrivalLane="E3_0" arrivalPos="33.94" arrivalSpeed="13.83" duration="17.00" routeLength="150.38" waitingTime="0.00" waitingCount="0" stopTime="0.00" timeLoss="4.90" rerouteNo="0" devices="tripinfo_2" vType="DEFAULT_VEHTYPE" speedFactor="1.01" vaporized=""/>
    <tripinfo id="9" depart="18.00" departLane="E0_0" departPos="5.10" departSpeed="0.00" departDelay="0.00" arrival="26.00" arrivalLane="E0_0" arrivalPos="59.98" arrivalSpeed="11.19" duration="8.00" routeLength="54.88" waitingTime="0.00" waitingCount="0" stopTime="0.00" timeLoss="2.66" rerouteNo="0" devices="tripinfo_9" vType="DEFAULT_VEHTYPE" speedFactor="0.86" vaporized=""/>
    <tripinfo id="18" depart="36.00" departLane="-E6_0" departPos="5.10" departSpeed="0.00" departDelay="0.00" arrival="43.00" arrivalLane="-E6_0" arrivalPos="54.42" arrivalSpeed="12.37" duration="7.00" routeLength="49.32" waitingTime="0.00" waitingCount="0" stopTime="0.00" timeLoss="3.15" rerouteNo="0" devices="tripinfo_18" vType="DEFAULT_VEHTYPE" speedFactor="0.94" vaporized=""/>
    <tripinfo id="3" depart="6.00" departLane="-E19_0" departPos="5.10" departSpeed="0.00" departDelay="0.00" arrival="51.00" arrivalLane="-E3_0" arrivalPos="33.94" arrivalSpeed="13.86" duration="45.00" routeLength="62.11" waitingTime="34.00" waitingCount="1" stopTime="0.00" timeLoss="40.34" rerouteNo="0" devices="tripinfo_3" vType="DEFAULT_VEHTYPE" speedFactor="1.08" vaporized=""/>
    <tripinfo id="8" depart="16.00" departLane="-E15_0" departPos="5.10" departSpeed="0.00" departDelay="0.00" arrival="51.00" arrivalLane="E2_0" arrivalPos="39.12" arrivalSpeed="12.99" duration="35.00" routeLength="207.17" waitingTime="7.00" waitingCount="1" stopTime="0.00" timeLoss="16.71" rerouteNo="0" devices="tripinfo_8" vType="DEFAULT_VEHTYPE" speedFactor="0.94" vaporized=""/>
    <tripinfo id="21" depart="42.00" departLane="-E20_0" departPos="5.10" departSpeed="0.00" departDelay="0.00" arrival="51.00" arrivalLane="-E7_0" arrivalPos="29.56" arrivalSpeed="14.02" duration="9.00" routeLength="60.76" waitingTime="0.00" waitingCount="0" stopTime="0.00" timeLoss="3.74" rerouteNo="0" devices="tripinfo_21" vType="DEFAULT_VEHTYPE" speedFactor="1.01" vaporized=""/>
    <tripinfo id="14" depart="28.00" departLane="E7_0" departPos="5.10" departSpeed="0.00" departDelay="0.00" arrival="52.00" arrivalLane="E20_0" arrivalPos="21.59" arrivalSpeed="13.06" duration="24.00" routeLength="61.04" waitingTime="12.00" waitingCount="1" stopTime="0.00" timeLoss="19.01" rerouteNo="0" devices="tripinfo_14" vType="DEFAULT_VEHTYPE" speedFactor="0.99" vaporized=""/>
    <tripinfo id="0" depart="0.00" departLane="-E6_0" departPos="5.10" departSpeed="0.00" departDelay="0.00" arrival="53.00" arrivalLane="E8_0" arrivalPos="58.81" arrivalSpeed="14.54" duration="53.00" routeLength="219.04" waitingTime="27.00" waitingCount="1" stopTime="0.00" timeLoss="36.34" rerouteNo="0" devices="tripinfo_0" vType="DEFAULT_VEHTYPE" speedFactor="1.06" vaporized=""/>
    <tripinfo id="11" depart="22.00" departLane="-E16_0" departPos="5.10" departSpeed="0.00" departDelay="0.00" arrival="57.00" arrivalLane="E15_0" arrivalPos="42.32" arrivalSpeed="13.08" duration="35.00" routeLength="130.75" waitingTime="14.00" waitingCount="1" stopTime="0.00" timeLoss="24.39" rerouteNo="0" devices="tripinfo_11" vType="DEFAULT_VEHTYPE" speedFactor="1.03" vaporized=""/>
    <tripinfo id="13" depart="26.00" departLane="E0_0" departPos="5.10" departSpeed="0.00" departDelay="0.00" arrival="58.00" arrivalLane="-E11_0" arrivalPos="38.72" arrivalSpeed="15.31" duration="32.00" routeLength="181.19" waitingTime="7.00" waitingCount="1" stopTime="0.00" timeLoss="19.63" rerouteNo="0" devices="tripinfo_13" vType="DEFAULT_VEHTYPE" speedFactor="1.12" vaporized=""/>
    <tripinfo id="26" depart="52.00" departLane="-E14_0" departPos="5.10" departSpeed="0.00" departDelay="0.00" arrival="65.00" arrivalLane="-E10_0" arrivalPos="63.43" arrivalSpeed="11.88" duration="13.00" routeLength="95.39" waitingTime="0.00" waitingCount="0" stopTime="0.00" timeLoss="4.16" rerouteNo="0" devices="tripinfo_26" vType="DEFAULT_VEHTYPE" speedFactor="0.92" vaporized=""/>
    <tripinfo id="1" depart="2.00" departLane="-E22_0" departPos="5.10" departSpeed="0.00" departDelay="0.00" arrival="67.00" arrivalLane="E20_0" arrivalPos="21.59" arrivalSpeed="12.29" duration="65.00" routeLength="250.98" waitingTime="35.00" waitingCount="1" stopTime="0.00" timeLoss="45.26" rerouteNo="0" devices="tripinfo_1" vType="DEFAULT_VEHTYPE" speedFactor="0.94" vaporized=""/>
    <tripinfo id="6" depart="12.00" departLane="-E15_0" departPos="5.10" departSpeed="0.00" departDelay="0.00" arrival="96.00" arrivalLane="E4_0" arrivalPos="27.10" arrivalSpeed="12.34" duration="84.00" routeLength="285.51" waitingTime="48.00" waitingCount="2" stopTime="0.00" timeLoss="63.37" rerouteNo="0" devices="tripinfo_6" vType="DEFAULT_VEHTYPE" speedFactor="1.05" vaporized=""/>
    <tripinfo id="45" depart="91.00" departLane="E3_0" departPos="5.10" departSpeed="0.00" departDelay="1.00" arrival="96.00" arrivalLane="E3_0" arrivalPos="33.94" arrivalSpeed="9.34" duration="5.00" routeLength="28.84" waitingTime="0.00" waitingCount="0" stopTime="0.00" timeLoss="3.04" rerouteNo="0" devices="tripinfo_45" vType="DEFAULT_VEHTYPE" speedFactor="1.09" vaporized=""/>
    <tripinfo id="39" depart="78.00" departLane="-E14_0" departPos="5.10" departSpeed="0.00" departDelay="0.00" arrival="97.00" arrivalLane="E8_0" arrivalPos="58.81" arrivalSpeed="11.29" duration="19.00" routeLength="168.76" waitingTime="0.00" waitingCount="0" stopTime="0.00" timeLoss="4.44" rerouteNo="0" devices="tripinfo_39" vType="DEFAULT_VEHTYPE" speedFactor="0.90" vaporized=""/>
    <tripinfo id="22" depart="50.00" departLane="-E19_0" departPos="5.10" departSpeed="0.00" departDelay="6.00" arrival="98.00" arrivalLane="-E4_0" arrivalPos="27.10" arrivalSpeed="12.71" duration="48.00" routeLength="125.09" waitingTime="26.00" waitingCount="1" stopTime="0.00" timeLoss="36.44" rerouteNo="0" devices="tripinfo_22" vType="DEFAULT_VEHTYPE" speedFactor="0.97" vaporized=""/>
    <tripinfo id="40" depart="80.00" departLane="E0_0" departPos="5.10" departSpeed="0.00" departDelay="0.00" arrival="100.00" arrivalLane="-E5_0" arrivalPos="60.98" arrivalSpeed="13.56" duration="20.00" routeLength="167.89" waitingTime="0.00" waitingCount="0" stopTime="0.00" timeLoss="6.78" rerouteNo="0" devices="tripinfo_40" vType="DEFAULT_VEHTYPE" speedFactor="1.03" vaporized=""/>
    <tripinfo id="42" depart="84.00" departLane="-E5_0" departPos="5.10" departSpeed="0.00" departDelay="0.00" arrival="100.00" arrivalLane="E18_0" arrivalPos="25.15" arrivalSpeed="12.39" duration="16.00" routeLength="95.28" waitingTime="0.00" waitingCount="0" stopTime="0.00" timeLoss="9.09" rerouteNo="0" devices="tripinfo_42" vType="DEFAULT_VEHTYPE" speedFactor="1.09" vaporized=""/>
    <tripinfo id="10" depart="20.00" departLane="-E19_0" departPos="5.10" departSpeed="0.00" departDelay="0.00" arrival="102.00" arrivalLane="E14_0" arrivalPos="27.81" arrivalSpeed="13.88" duration="82.00" routeLength="218.65" waitingTime="55.00" waitingCount="2" stopTime="0.00" timeLoss="65.88" rerouteNo="0" devices="tripinfo_10" vType="DEFAULT_VEHTYPE" speedFactor="1.09" vaporized=""/>
    <tripinfo id="36" depart="72.00" departLane="-E12_0" departPos="5.10" departSpeed="0.00" departDelay="0.00" arrival="105.00" arrivalLane="E0_0" arrivalPos="59.98" arrivalSpeed="12.26" duration="33.00" routeLength="155.03" waitingTime="11.00" waitingCount="1" stopTime="0.00" timeLoss="20.23" rerouteNo="0" devices="tripinfo_36" vType="DEFAULT_VEHTYPE" speedFactor="0.97" vaporized=""/>
    <tripinfo id="31" depart="62.00" departLane="-E21_0" departPos="5.10" departSpeed="0.00" departDelay="0.00" arrival="108.00" arrivalLane="-E9_0" arrivalPos="40.96" arrivalSpeed="14.78" duration="46.00" routeLength="108.12" waitingTime="27.00" waitingCount="2" stopTime="0.00" timeLoss="37.87" rerouteNo="0" devices="tripinfo_31" vType="DEFAULT_VEHTYPE" speedFactor="1.15" vaporized=""/>
    <tripinfo id="38" depart="76.00" departLane="E3_0" departPos="5.10" departSpeed="0.00" departDelay="0.00" arrival="111.00" arrivalLane="-E1_0" arrivalPos="58.45" arrivalSpeed="14.34" duration="35.00" routeLength="215.03" waitingTime="1.00" waitingCount="1" stopTime="0.00" timeLoss="18.62" rerouteNo="0" devices="tripinfo_38" vType="DEFAULT_VEHTYPE" speedFactor="1.10" vaporized=""/>
    <tripinfo id="37" depart="74.00" departLane="-E4_0" departPos="5.10" departSpeed="0.00" departDelay="0.00" arrival="113.00" arrivalLane="-E5_0" arrivalPos="60.98" arrivalSpeed="15.87" duration="39.00" routeLength="204.43" waitingTime="10.00" waitingCount="1" stopTime="0.00" timeLoss="24.72" rerouteNo="0" devices="tripinfo_37" vType="DEFAULT_VEHTYPE" speedFactor="1.18" vaporized=""/>
    <tripinfo id="34" depart="68.00" departLane="E6_0" departPos="5.10" departSpeed="0.00" departDelay="0.00" arrival="117.00" arrivalLane="E2_0" arrivalPos="39.12" arrivalSpeed="8.53" duration="49.00" routeLength="214.85" waitingTime="13.00" waitingCount="1" stopTime="0.00" timeLoss="31.17" rerouteNo="0" devices="tripinfo_34" vType="DEFAULT_VEHTYPE" speedFactor="0.99" vaporized=""/>
    <tripinfo id="15" depart="30.00" departLane="-E18_0" departPos="5.10" departSpeed="0.00" departDelay="0.00" arrival="119.00" arrivalLane="E13_0" arrivalPos="27.85" arrivalSpeed="12.30" duration="89.00" routeLength="227.03" waitingTime="50.00" waitingCount="3" stopTime="0.00" timeLoss="69.49" rerouteNo="0" devices="tripinfo_15" vType="DEFAULT_VEHTYPE" speedFactor="0.93" vaporized=""/>
    <tripinfo id="51" depart="102.00" departLane="-E18_0" departPos="5.10" departSpeed="0.00" departDelay="0.00" arrival="138.00" arrivalLane="E2_0" arrivalPos="39.12" arrivalSpeed="15.06" duration="36.00" routeLength="184.60" waitingTime="12.00" waitingCount="1" stopTime="0.00" timeLoss="23.63" rerouteNo="0" devices="tripinfo_51" vType="DEFAULT_VEHTYPE" speedFactor="1.17" vaporized=""/>
    <tripinfo id="43" depart="86.00" departLane="E0_0" departPos="5.10" departSpeed="0.00" departDelay="0.00" arrival="141.00" arrivalLane="E12_0" arrivalPos="30.33" arrivalSpeed="13.11" duration="55.00" routeLength="220.86" waitingTime="23.00" waitingCount="2" stopTime="0.00" timeLoss="37.01" rerouteNo="0" devices="tripinfo_43" vType="DEFAULT_VEHTYPE" speedFactor="1.04" vaporized=""/>
    <tripinfo id="52" depart="104.00" departLane="E9_0" departPos="5.10" departSpeed="0.00" departDelay="0.00" arrival="151.00" arrivalLane="E23_0" arrivalPos="39.96" arrivalSpeed="13.45" duration="47.00" routeLength="291.18" waitingTime="6.00" waitingCount="1" stopTime="0.00" timeLoss="23.30" rerouteNo="0" devices="tripinfo_52" vType="DEFAULT_VEHTYPE" speedFactor="1.02" vaporized=""/>
</tripinfos>
