<?xml version="1.0" encoding="UTF-8"?>

<!-- generated on 2026-05-29T15:19:13.536670+09:00 by Eclipse SUMO GUI 1.26.0
<sumoConfiguration xmlns:xsi="http://www.w3.org/2001/XMLSchema-instance" xsi:noNamespaceSchemaLocation="http://sumo.dlr.de/xsd/sumoConfiguration.xsd">

    <input>
        <net-file value="C:\Users\GLAB-PC002\Desktop\sumo_project\map.net.xml"/>
        <route-files value="C:\Users\GLAB-PC002\Desktop\sumo_project\car.rou.xml"/>
        <additional-files value="C:\Users\GLAB-PC002\Desktop\sumo_project\edgeData.add.xml"/>
    </input>

    <output>
        <tripinfo-output value="C:\Users\GLAB-PC002\Desktop\sumo_project\tripinfo.xml"/>
    </output>

    <time>
        <begin value="0"/>
        <end value="500"/>
    </time>

    <traci_server>
        <remote-port value="58478"/>
    </traci_server>

</sumoConfiguration>
-->

<tripinfos xmlns:xsi="http://www.w3.org/2001/XMLSchema-instance" xsi:noNamespaceSchemaLocation="http://sumo.dlr.de/xsd/tripinfo_file.xsd">
    <tripinfo id="2" depart="4.00" departLane="-E8_0" departPos="5.10" departSpeed="0.00" departDelay="0.00" arrival="21.00" arrivalLane="E3_0" arrivalPos="33.94" arrivalSpeed="13.83" duration="17.00" routeLength="150.38" waitingTime="0.00" waitingCount="0" stopTime="0.00" timeLoss="4.90" rerouteNo="0" devices="tripinfo_2" vType="DEFAULT_VEHTYPE" speedFactor="1.01" vaporized=""/>
    <tripinfo id="9" depart="18.00" departLane="E0_0" departPos="5.10" departSpeed="0.00" departDelay="0.00" arrival="26.00" arrivalLane="E0_0" arrivalPos="59.98" arrivalSpeed="11.19" duration="8.00" routeLength="54.88" waitingTime="0.00" waitingCount="0" stopTime="0.00" timeLoss="2.66" rerouteNo="0" devices="tripinfo_9" vType="DEFAULT_VEHTYPE" speedFactor="0.86" vaporized=""/>
    <tripinfo id="18" depart="36.00" departLane="-E6_0" departPos="5.10" departSpeed="0.00" departDelay="0.00" arrival="43.00" arrivalLane="-E6_0" arrivalPos="54.42" arrivalSpeed="12.37" duration="7.00" routeLength="49.32" waitingTime="0.00" waitingCount="0" stopTime="0.00" timeLoss="3.15" rerouteNo="0" devices="tripinfo_18" vType="DEFAULT_VEHTYPE" speedFactor="0.94" vaporized=""/>
    <tripinfo id="3" depart="6.00" departLane="-E19_0" departPos="5.10" departSpeed="0.00" departDelay="0.00" arrival="51.00" arrivalLane="-E3_0" arrivalPos="33.94" arrivalSpeed="13.86" duration="45.00" routeLength="62.11" waitingTime="34.00" waitingCount="1" stopTime="0.00" timeLoss="40.34" rerouteNo="0" devices="tripinfo_3" vType="DEFAULT_VEHTYPE" speedFactor="1.08" vaporized=""/>
    <tripinfo id="8" depart="16.00" departLane="-E15_0" departPos="5.10" departSpeed="0.00" departDelay="0.00" arrival="51.00" arrivalLane="E2_0" arrivalPos="39.12" arrivalSpeed="12.99" duration="35.00" routeLength="207.17" waitingTime="7.00" waitingCount="1" stopTime="0.00" timeLoss="16.71" rerouteNo="0" devices="tripinfo_8" vType="DEFAULT_VEHTYPE" speedFactor="0.94" vaporized=""/>
    <tripinfo id="21" depart="42.00" departLane="-E20_0" departPos="5.10" departSpeed="0.00" departDelay="0.00" arrival="51.00" arrivalLane="-E7_0" arrivalPos="29.56" arrivalSpeed="14.02" duration="9.00" routeLength="60.76" waitingTime="0.00" waitingCount="0" stopTime="0.00" timeLoss="3.74" rerouteNo="0" devices="tripinfo_21" vType="DEFAULT_VEHTYPE" speedFactor="1.01" vaporized=""/>
    <tripinfo id="14" depart="28.00" departLane="E7_0" departPos="5.10" departSpeed="0.00" departDelay="0.00" arrival="52.00" arrivalLane="E20_0" arrivalPos="21.59" arrivalSpeed="13.06" duration="24.00" routeLength="61.04" waitingTime="12.00" waitingCount="1" stopTime="0.00" timeLoss="19.01" rerouteNo="0" devices="tripinfo_14" vType="DEFAULT_VEHTYPE" speedFactor="0.99" vaporized=""/>
    <tripinfo id="0" depart="0.00" departLane="-E6_0" departPos="5.10" departSpeed="0.00" departDelay="0.00" arrival="53.00" arrivalLane="E8_0" arrivalPos="58.81" arrivalSpeed="14.54" duration="53.00" routeLength="219.04" waitingTime="27.00" waitingCount="1" stopTime="0.00" timeLoss="36.34" rerouteNo="0" devices="tripinfo_0" vType="DEFAULT_VEHTYPE" speedFactor="1.06" vaporized=""/>
    <tripinfo id="11" depart="22.00" departLane="-E16_0" departPos="5.10" departSpeed="0.00" departDelay="0.00" arrival="57.00" arrivalLane="E15_0" arrivalPos="42.32" arrivalSpeed="13.08" duration="35.00" routeLength="130.75" waitingTime="14.00" waitingCount="1" stopTime="0.00" timeLoss="24.39" rerouteNo="0" devices="tripinfo_11" vType="DEFAULT_VEHTYPE" speedFactor="1.03" vaporized=""/>
    <tripinfo id="13" depart="26.00" departLane="E0_0" departPos="5.10" departSpeed="0.00" departDelay="0.00" arrival="58.00" arrivalLane="-E11_0" arrivalPos="38.72" arrivalSpeed="15.31" duration="32.00" routeLength="181.19" waitingTime="7.00" waitingCount="1" stopTime="0.00" timeLoss="19.63" rerouteNo="0" devices="tripinfo_13" vType="DEFAULT_VEHTYPE" speedFactor="1.12" vaporized=""/>
    <tripinfo id="26" depart="52.00" departLane="-E14_0" departPos="5.10" departSpeed="0.00" departDelay="0.00" arrival="65.00" arrivalLane="-E10_0" arrivalPos="63.43" arrivalSpeed="11.88" duration="13.00" routeLength="95.39" waitingTime="0.00" waitingCount="0" stopTime="0.00" timeLoss="4.16" rerouteNo="0" devices="tripinfo_26" vType="DEFAULT_VEHTYPE" speedFactor="0.92" vaporized=""/>
    <tripinfo id="1" depart="2.00" departLane="-E22_0" departPos="5.10" departSpeed="0.00" departDelay="0.00" arrival="67.00" arrivalLane="E20_0" arrivalPos="21.59" arrivalSpeed="12.29" duration="65.00" routeLength="250.98" waitingTime="35.00" waitingCount="1" stopTime="0.00" timeLoss="45.26" rerouteNo="0" devices="tripinfo_1" vType="DEFAULT_VEHTYPE" speedFactor="0.94" vaporized=""/>
    <tripinfo id="45" depart="90.00" departLane="E3_0" departPos="5.10" departSpeed="0.00" departDelay="0.00" arrival="95.00" arrivalLane="E3_0" arrivalPos="33.94" arrivalSpeed="10.72" duration="5.00" routeLength="28.84" waitingTime="0.00" waitingCount="0" stopTime="0.00" timeLoss="2.76" rerouteNo="0" devices="tripinfo_45" vType="DEFAULT_VEHTYPE" speedFactor="1.09" vaporized=""/>
    <tripinfo id="6" depart="12.00" departLane="-E15_0" departPos="5.10" departSpeed="0.00" departDelay="0.00" arrival="96.00" arrivalLane="E4_0" arrivalPos="27.10" arrivalSpeed="12.34" duration="84.00" routeLength="285.51" waitingTime="48.00" waitingCount="2" stopTime="0.00" timeLoss="63.37" rerouteNo="0" devices="tripinfo_6" vType="DEFAULT_VEHTYPE" speedFactor="1.05" vaporized=""/>
    <tripinfo id="39" depart="78.00" departLane="-E14_0" departPos="5.10" departSpeed="0.00" departDelay="0.00" arrival="97.00" arrivalLane="E8_0" arrivalPos="58.81" arrivalSpeed="11.29" duration="19.00" routeLength="168.76" waitingTime="0.00" waitingCount="0" stopTime="0.00" timeLoss="4.44" rerouteNo="0" devices="tripinfo_39" vType="DEFAULT_VEHTYPE" speedFactor="0.90" vaporized=""/>
    <tripinfo id="22" depart="50.00" departLane="-E19_0" departPos="5.10" departSpeed="0.00" departDelay="6.00" arrival="98.00" arrivalLane="-E4_0" arrivalPos="27.10" arrivalSpeed="12.33" duration="48.00" routeLength="125.09" waitingTime="26.00" waitingCount="1" stopTime="0.00" timeLoss="36.51" rerouteNo="0" devices="tripinfo_22" vType="DEFAULT_VEHTYPE" speedFactor="0.97" vaporized=""/>
    <tripinfo id="42" depart="84.00" departLane="-E5_0" departPos="5.10" departSpeed="0.00" departDelay="0.00" arrival="101.00" arrivalLane="E18_0" arrivalPos="25.15" arrivalSpeed="13.13" duration="17.00" routeLength="95.28" waitingTime="0.00" waitingCount="0" stopTime="0.00" timeLoss="9.35" rerouteNo="0" devices="tripinfo_42" vType="DEFAULT_VEHTYPE" speedFactor="1.09" vaporized=""/>
    <tripinfo id="4" depart="8.00" departLane="-E13_0" departPos="5.10" departSpeed="0.00" departDelay="0.00" arrival="103.00" arrivalLane="-E1_0" arrivalPos="58.45" arrivalSpeed="14.23" duration="95.00" routeLength="216.56" waitingTime="62.00" waitingCount="2" stopTime="0.00" timeLoss="77.55" rerouteNo="0" devices="tripinfo_4" vType="DEFAULT_VEHTYPE" speedFactor="1.03" vaporized=""/>
    <tripinfo id="20" depart="40.00" departLane="-E0_0" departPos="5.10" departSpeed="0.00" departDelay="0.00" arrival="103.00" arrivalLane="E13_0" arrivalPos="27.85" arrivalSpeed="11.93" duration="63.00" routeLength="214.95" waitingTime="33.00" waitingCount="1" stopTime="0.00" timeLoss="45.80" rerouteNo="0" devices="tripinfo_20" vType="DEFAULT_VEHTYPE" speedFactor="1.02" vaporized=""/>
    <tripinfo id="5" depart="10.00" departLane="E10_0" departPos="5.10" departSpeed="0.00" departDelay="0.00" arrival="105.00" arrivalLane="-E4_0" arrivalPos="27.10" arrivalSpeed="11.48" duration="95.00" routeLength="327.16" waitingTime="47.00" waitingCount="2" stopTime="0.00" timeLoss="63.71" rerouteNo="0" devices="tripinfo_5" vType="DEFAULT_VEHTYPE" speedFactor="0.83" vaporized=""/>
    <tripinfo id="36" depart="72.00" departLane="-E12_0" departPos="5.10" departSpeed="0.00" departDelay="0.00" arrival="105.00" arrivalLane="E0_0" arrivalPos="59.98" arrivalSpeed="12.73" duration="33.00" routeLength="155.03" waitingTime="11.00" waitingCount="1" stopTime="0.00" timeLoss="20.41" rerouteNo="0" devices="tripinfo_36" vType="DEFAULT_VEHTYPE" speedFactor="0.97" vaporized=""/>
    <tripinfo id="7" depart="14.00" departLane="E9_0" departPos="5.10" departSpeed="0.00" departDelay="0.00" arrival="106.00" arrivalLane="E17_0" arrivalPos="36.04" arrivalSpeed="12.03" duration="92.00" routeLength="273.04" waitingTime="49.00" waitingCount="3" stopTime="0.00" timeLoss="69.17" rerouteNo="0" devices="tripinfo_7" vType="DEFAULT_VEHTYPE" speedFactor="0.89" vaporized=""/>
    <tripinfo id="16" depart="32.00" departLane="-E12_0" departPos="5.10" departSpeed="0.00" departDelay="0.00" arrival="109.00" arrivalLane="E20_0" arrivalPos="21.59" arrivalSpeed="10.28" duration="77.00" routeLength="297.74" waitingTime="30.00" waitingCount="2" stopTime="0.00" timeLoss="50.20" rerouteNo="0" devices="tripinfo_16" vType="DEFAULT_VEHTYPE" speedFactor="0.88" vaporized=""/>
    <tripinfo id="31" depart="62.00" departLane="-E21_0" departPos="5.10" departSpeed="0.00" departDelay="0.00" arrival="114.00" arrivalLane="-E9_0" arrivalPos="40.96" arrivalSpeed="10.11" duration="52.00" routeLength="108.12" waitingTime="31.00" waitingCount="2" stopTime="0.00" timeLoss="44.69" rerouteNo="0" devices="tripinfo_31" vType="DEFAULT_VEHTYPE" speedFactor="1.15" vaporized=""/>
    <tripinfo id="12" depart="47.00" departLane="-E19_0" departPos="5.10" departSpeed="0.00" departDelay="23.00" arrival="126.00" arrivalLane="E13_0" arrivalPos="27.85" arrivalSpeed="12.88" duration="79.00" routeLength="158.15" waitingTime="52.00" waitingCount="2" stopTime="0.00" timeLoss="68.11" rerouteNo="0" devices="tripinfo_12" vType="DEFAULT_VEHTYPE" speedFactor="1.05" vaporized=""/>
    <tripinfo id="24" depart="48.00" departLane="-E22_0" departPos="5.10" departSpeed="0.00" departDelay="0.00" arrival="127.00" arrivalLane="-E2_0" arrivalPos="39.12" arrivalSpeed="10.57" duration="79.00" routeLength="199.75" waitingTime="44.00" waitingCount="2" stopTime="0.00" timeLoss="57.67" rerouteNo="0" devices="tripinfo_24" vType="DEFAULT_VEHTYPE" speedFactor="0.83" vaporized=""/>
    <tripinfo id="15" depart="30.00" departLane="-E18_0" departPos="5.10" departSpeed="0.00" departDelay="0.00" arrival="131.00" arrivalLane="E13_0" arrivalPos="27.85" arrivalSpeed="12.46" duration="101.00" routeLength="227.03" waitingTime="59.00" waitingCount="3" stopTime="0.00" timeLoss="81.64" rerouteNo="0" devices="tripinfo_15" vType="DEFAULT_VEHTYPE" speedFactor="0.93" vaporized=""/>
    <tripinfo id="10" depart="20.00" departLane="-E19_0" departPos="5.10" departSpeed="0.00" departDelay="0.00" arrival="141.00" arrivalLane="E14_0" arrivalPos="27.81" arrivalSpeed="12.62" duration="121.00" routeLength="218.65" waitingTime="88.00" waitingCount="3" stopTime="0.00" timeLoss="104.74" rerouteNo="0" devices="tripinfo_10" vType="DEFAULT_VEHTYPE" speedFactor="1.09" vaporized=""/>
    <tripinfo id="29" depart="58.00" departLane="-E8_0" departPos="5.10" departSpeed="0.00" departDelay="0.00" arrival="144.00" arrivalLane="E4_0" arrivalPos="27.10" arrivalSpeed="12.73" duration="86.00" routeLength="212.66" waitingTime="43.00" waitingCount="3" stopTime="0.00" timeLoss="67.27" rerouteNo="0" devices="tripinfo_29" vType="DEFAULT_VEHTYPE" speedFactor="0.93" vaporized=""/>
    <tripinfo id="33" depart="66.00" departLane="E4_0" departPos="5.10" departSpeed="0.00" departDelay="0.00" arrival="145.00" arrivalLane="E14_0" arrivalPos="27.81" arrivalSpeed="15.13" duration="79.00" routeLength="307.55" waitingTime="27.00" waitingCount="3" stopTime="0.00" timeLoss="58.40" rerouteNo="0" devices="tripinfo_33" vType="DEFAULT_VEHTYPE" speedFactor="1.17" vaporized=""/>
    <tripinfo id="40" depart="80.00" departLane="E0_0" departPos="5.10" departSpeed="0.00" departDelay="0.00" arrival="146.00" arrivalLane="-E5_0" arrivalPos="60.98" arrivalSpeed="9.68" duration="66.00" routeLength="167.89" waitingTime="38.00" waitingCount="2" stopTime="0.00" timeLoss="52.74" rerouteNo="0" devices="tripinfo_40" vType="DEFAULT_VEHTYPE" speedFactor="1.03" vaporized=""/>
    <tripinfo id="37" depart="74.00" departLane="-E4_0" departPos="5.10" departSpeed="0.00" departDelay="0.00" arrival="148.00" arrivalLane="-E5_0" arrivalPos="60.98" arrivalSpeed="11.08" duration="74.00" routeLength="204.43" waitingTime="39.00" waitingCount="2" stopTime="0.00" timeLoss="59.68" rerouteNo="0" devices="tripinfo_37" vType="DEFAULT_VEHTYPE" speedFactor="1.18" vaporized=""/>
    <tripinfo id="50" depart="124.00" departLane="-E2_0" departPos="5.10" departSpeed="0.00" departDelay="24.00" arrival="148.00" arrivalLane="E19_0" arrivalPos="18.28" arrivalSpeed="11.82" duration="24.00" routeLength="115.28" waitingTime="7.00" waitingCount="1" stopTime="0.00" timeLoss="14.19" rerouteNo="0" devices="tripinfo_50" vType="DEFAULT_VEHTYPE" speedFactor="0.85" vaporized=""/>
    <tripinfo id="61" depart="122.00" departLane="-E13_0" departPos="5.10" departSpeed="0.00" departDelay="0.00" arrival="150.00" arrivalLane="E19_0" arrivalPos="18.28" arrivalSpeed="15.16" duration="28.00" routeLength="157.63" waitingTime="6.00" waitingCount="1" stopTime="0.00" timeLoss="17.42" rerouteNo="0" devices="tripinfo_61" vType="DEFAULT_VEHTYPE" speedFactor="1.12" vaporized=""/>
    <tripinfo id="32" depart="64.00" departLane="E10_0" departPos="5.10" departSpeed="0.00" departDelay="0.00" arrival="154.00" arrivalLane="E8_0" arrivalPos="58.81" arrivalSpeed="8.82" duration="90.00" routeLength="295.67" waitingTime="33.00" waitingCount="3" stopTime="0.00" timeLoss="65.50" rerouteNo="0" devices="tripinfo_32" vType="DEFAULT_VEHTYPE" speedFactor="1.01" vaporized=""/>
    <tripinfo id="43" depart="86.00" departLane="E0_0" departPos="5.10" departSpeed="0.00" departDelay="0.00" arrival="155.00" arrivalLane="E12_0" arrivalPos="30.33" arrivalSpeed="12.49" duration="69.00" routeLength="220.86" waitingTime="25.00" waitingCount="3" stopTime="0.00" timeLoss="51.87" rerouteNo="0" devices="tripinfo_43" vType="DEFAULT_VEHTYPE" speedFactor="1.04" vaporized=""/>
    <tripinfo id="53" depart="106.00" departLane="-E9_0" departPos="5.10" departSpeed="0.00" departDelay="0.00" arrival="158.00" arrivalLane="E13_0" arrivalPos="27.85" arrivalSpeed="15.03" duration="52.00" routeLength="145.93" waitingTime="21.00" waitingCount="2" stopTime="0.00" timeLoss="40.64" rerouteNo="0" devices="tripinfo_53" vType="DEFAULT_VEHTYPE" speedFactor="1.10" vaporized=""/>
    <tripinfo id="38" depart="76.00" departLane="E3_0" departPos="5.10" departSpeed="0.00" departDelay="0.00" arrival="162.00" arrivalLane="-E1_0" arrivalPos="58.45" arrivalSpeed="9.98" duration="86.00" routeLength="215.03" waitingTime="38.00" waitingCount="3" stopTime="0.00" timeLoss="69.61" rerouteNo="0" devices="tripinfo_38" vType="DEFAULT_VEHTYPE" speedFactor="1.10" vaporized=""/>
    <tripinfo id="23" depart="46.00" departLane="-E5_0" departPos="5.10" departSpeed="0.00" departDelay="0.00" arrival="177.00" arrivalLane="-E2_0" arrivalPos="39.12" arrivalSpeed="5.04" duration="131.00" routeLength="264.10" waitingTime="85.00" waitingCount="4" stopTime="0.00" timeLoss="107.78" rerouteNo="0" devices="tripinfo_23" vType="DEFAULT_VEHTYPE" speedFactor="0.89" vaporized=""/>
    <tripinfo id="17" depart="34.00" departLane="-E8_0" departPos="5.10" departSpeed="0.00" departDelay="0.00" arrival="183.00" arrivalLane="-E9_0" arrivalPos="40.96" arrivalSpeed="5.01" duration="149.00" routeLength="221.17" waitingTime="108.00" waitingCount="4" stopTime="0.00" timeLoss="130.44" rerouteNo="0" devices="tripinfo_17" vType="DEFAULT_VEHTYPE" speedFactor="0.94" vaporized=""/>
    <tripinfo id="28" depart="56.00" departLane="-E15_0" departPos="5.10" departSpeed="0.00" departDelay="0.00" arrival="184.00" arrivalLane="E2_0" arrivalPos="39.12" arrivalSpeed="5.44" duration="128.00" routeLength="207.17" waitingTime="90.00" waitingCount="4" stopTime="0.00" timeLoss="112.84" rerouteNo="0" devices="tripinfo_28" vType="DEFAULT_VEHTYPE" speedFactor="1.13" vaporized=""/>
    <tripinfo id="27" depart="54.00" departLane="-E2_0" departPos="5.10" departSpeed="0.00" departDelay="0.00" arrival="186.00" arrivalLane="-E3_0" arrivalPos="33.94" arrivalSpeed="12.16" duration="132.00" routeLength="252.82" waitingTime="86.00" waitingCount="4" stopTime="0.00" timeLoss="110.20" rerouteNo="0" devices="tripinfo_27" vType="DEFAULT_VEHTYPE" speedFactor="0.95" vaporized=""/>
    <tripinfo id="34" depart="68.00" departLane="E6_0" departPos="5.10" departSpeed="0.00" departDelay="0.00" arrival="186.00" arrivalLane="E2_0" arrivalPos="39.12" arrivalSpeed="7.12" duration="118.00" routeLength="214.85" waitingTime="75.00" waitingCount="4" stopTime="0.00" timeLoss="100.49" rerouteNo="0" devices="tripinfo_34" vType="DEFAULT_VEHTYPE" speedFactor="0.99" vaporized=""/>
    <tripinfo id="64" depart="128.00" departLane="-E19_0" departPos="5.10" departSpeed="0.00" departDelay="0.00" arrival="186.00" arrivalLane="E17_0" arrivalPos="36.04" arrivalSpeed="12.78" duration="58.00" routeLength="128.65" waitingTime="36.00" waitingCount="1" stopTime="0.00" timeLoss="47.65" rerouteNo="0" devices="tripinfo_64" vType="DEFAULT_VEHTYPE" speedFactor="0.94" vaporized=""/>
    <tripinfo id="66" depart="132.00" departLane="-E23_0" departPos="5.10" departSpeed="0.00" departDelay="0.00" arrival="187.00" arrivalLane="E22_0" arrivalPos="33.36" arrivalSpeed="11.46" duration="55.00" routeLength="127.66" waitingTime="33.00" waitingCount="1" stopTime="0.00" timeLoss="42.41" rerouteNo="0" devices="tripinfo_66" vType="DEFAULT_VEHTYPE" speedFactor="0.91" vaporized=""/>
    <tripinfo id="67" depart="134.00" departLane="-E9_0" departPos="5.10" departSpeed="0.00" departDelay="0.00" arrival="187.00" arrivalLane="E23_0" arrivalPos="39.96" arrivalSpeed="12.19" duration="53.00" routeLength="90.17" waitingTime="38.00" waitingCount="1" stopTime="0.00" timeLoss="44.32" rerouteNo="0" devices="tripinfo_67" vType="DEFAULT_VEHTYPE" speedFactor="0.91" vaporized=""/>
    <tripinfo id="62" depart="124.00" departLane="-E9_0" departPos="5.10" departSpeed="0.00" departDelay="0.00" arrival="190.00" arrivalLane="E7_0" arrivalPos="29.56" arrivalSpeed="13.81" duration="66.00" routeLength="273.90" waitingTime="25.00" waitingCount="2" stopTime="0.00" timeLoss="44.74" rerouteNo="0" devices="tripinfo_62" vType="DEFAULT_VEHTYPE" speedFactor="1.02" vaporized=""/>
    <tripinfo id="19" depart="38.00" departLane="-E2_0" departPos="5.10" departSpeed="0.00" departDelay="0.00" arrival="207.00" arrivalLane="-E4_0" arrivalPos="27.10" arrivalSpeed="4.97" duration="169.00" routeLength="188.92" waitingTime="128.00" waitingCount="4" stopTime="0.00" timeLoss="155.95" rerouteNo="0" devices="tripinfo_19" vType="DEFAULT_VEHTYPE" speedFactor="1.16" vaporized=""/>
    <tripinfo id="58" depart="117.00" departLane="E8_0" departPos="5.10" departSpeed="0.00" departDelay="1.00" arrival="207.00" arrivalLane="E9_0" arrivalPos="40.96" arrivalSpeed="6.07" duration="90.00" routeLength="108.87" waitingTime="59.00" waitingCount="4" stopTime="0.00" timeLoss="81.40" rerouteNo="0" devices="tripinfo_58" vType="DEFAULT_VEHTYPE" speedFactor="1.02" vaporized=""/>
    <tripinfo id="30" depart="60.00" departLane="-E13_0" departPos="5.10" departSpeed="0.00" departDelay="0.00" arrival="210.00" arrivalLane="-E3_0" arrivalPos="33.94" arrivalSpeed="12.62" duration="150.00" routeLength="295.17" waitingTime="91.00" waitingCount="5" stopTime="0.00" timeLoss="128.89" rerouteNo="0" devices="tripinfo_30" vType="DEFAULT_VEHTYPE" speedFactor="1.18" vaporized=""/>
    <tripinfo id="57" depart="114.00" departLane="E8_0" departPos="5.10" departSpeed="0.00" departDelay="0.00" arrival="210.00" arrivalLane="E4_0" arrivalPos="27.10" arrivalSpeed="13.52" duration="96.00" routeLength="150.50" waitingTime="64.00" waitingCount="4" stopTime="0.00" timeLoss="85.21" rerouteNo="0" devices="tripinfo_57" vType="DEFAULT_VEHTYPE" speedFactor="1.14" vaporized=""/>
    <tripinfo id="60" depart="120.00" departLane="-E21_0" departPos="5.10" departSpeed="0.00" departDelay="0.00" arrival="210.00" arrivalLane="E5_0" arrivalPos="60.98" arrivalSpeed="7.36" duration="90.00" routeLength="86.71" waitingTime="62.00" waitingCount="3" stopTime="0.00" timeLoss="83.96" rerouteNo="0" devices="tripinfo_60" vType="DEFAULT_VEHTYPE" speedFactor="1.08" vaporized=""/>
    <tripinfo id="41" depart="82.00" departLane="E6_0" departPos="5.10" departSpeed="0.00" departDelay="0.00" arrival="212.00" arrivalLane="E12_0" arrivalPos="30.33" arrivalSpeed="12.55" duration="130.00" routeLength="336.06" waitingTime="66.00" waitingCount="5" stopTime="0.00" timeLoss="102.29" rerouteNo="0" devices="tripinfo_41" vType="DEFAULT_VEHTYPE" speedFactor="0.96" vaporized=""/>
    <tripinfo id="83" depart="186.00" departLane="-E9_0" departPos="5.10" departSpeed="0.00" departDelay="20.00" arrival="212.00" arrivalLane="-E9_0" arrivalPos="40.96" arrivalSpeed="8.56" duration="26.00" routeLength="35.86" waitingTime="14.00" waitingCount="1" stopTime="0.00" timeLoss="23.09" rerouteNo="0" devices="tripinfo_83" vType="DEFAULT_VEHTYPE" speedFactor="0.97" vaporized=""/>
    <tripinfo id="55" depart="110.00" departLane="E9_0" departPos="5.10" departSpeed="0.00" departDelay="0.00" arrival="214.00" arrivalLane="E6_0" arrivalPos="54.42" arrivalSpeed="10.99" duration="104.00" routeLength="222.28" waitingTime="61.00" waitingCount="3" stopTime="0.00" timeLoss="87.40" rerouteNo="0" devices="tripinfo_55" vType="DEFAULT_VEHTYPE" speedFactor="1.00" vaporized=""/>
    <tripinfo id="73" depart="146.00" departLane="-E16_0" departPos="5.10" departSpeed="0.00" departDelay="0.00" arrival="214.00" arrivalLane="E12_0" arrivalPos="30.33" arrivalSpeed="13.53" duration="68.00" routeLength="273.23" waitingTime="22.00" waitingCount="2" stopTime="0.00" timeLoss="47.68" rerouteNo="0" devices="tripinfo_73" vType="DEFAULT_VEHTYPE" speedFactor="1.06" vaporized=""/>
    <tripinfo id="35" depart="70.00" departLane="-E2_0" departPos="5.10" departSpeed="0.00" departDelay="0.00" arrival="219.00" arrivalLane="-E1_0" arrivalPos="58.45" arrivalSpeed="9.70" duration="149.00" routeLength="268.59" waitingTime="89.00" waitingCount="5" stopTime="0.00" timeLoss="127.52" rerouteNo="0" devices="tripinfo_35" vType="DEFAULT_VEHTYPE" speedFactor="1.02" vaporized=""/>
    <tripinfo id="82" depart="164.00" departLane="E2_0" departPos="5.10" departSpeed="0.00" departDelay="0.00" arrival="221.00" arrivalLane="-E0_0" arrivalPos="59.98" arrivalSpeed="11.22" duration="57.00" routeLength="297.05" waitingTime="16.00" waitingCount="2" stopTime="0.00" timeLoss="34.05" rerouteNo="0" devices="tripinfo_82" vType="DEFAULT_VEHTYPE" speedFactor="1.02" vaporized=""/>
    <tripinfo id="85" depart="170.00" departLane="-E20_0" departPos="5.10" departSpeed="0.00" departDelay="0.00" arrival="223.00" arrivalLane="-E0_0" arrivalPos="59.98" arrivalSpeed="12.99" duration="53.00" routeLength="208.31" waitingTime="18.00" waitingCount="1" stopTime="0.00" timeLoss="36.63" rerouteNo="0" devices="tripinfo_85" vType="DEFAULT_VEHTYPE" speedFactor="0.98" vaporized=""/>
    <tripinfo id="69" depart="138.00" departLane="-E23_0" departPos="5.10" departSpeed="0.00" departDelay="0.00" arrival="225.00" arrivalLane="E23_0" arrivalPos="39.96" arrivalSpeed="13.89" duration="87.00" routeLength="330.15" waitingTime="29.00" waitingCount="2" stopTime="0.00" timeLoss="59.81" rerouteNo="0" devices="tripinfo_69" vType="DEFAULT_VEHTYPE" speedFactor="1.02" vaporized=""/>
    <tripinfo id="46" depart="95.00" departLane="E9_0" departPos="5.10" departSpeed="0.00" departDelay="3.00" arrival="231.00" arrivalLane="-E1_0" arrivalPos="58.45" arrivalSpeed="12.98" duration="136.00" routeLength="339.62" waitingTime="79.00" waitingCount="4" stopTime="0.00" timeLoss="108.89" rerouteNo="0" devices="tripinfo_46" vType="DEFAULT_VEHTYPE" speedFactor="1.00" vaporized=""/>
    <tripinfo id="44" depart="88.00" departLane="-E20_0" departPos="5.10" departSpeed="0.00" departDelay="0.00" arrival="232.00" arrivalLane="E15_0" arrivalPos="42.32" arrivalSpeed="14.30" duration="144.00" routeLength="166.89" waitingTime="114.00" waitingCount="3" stopTime="0.00" timeLoss="131.30" rerouteNo="0" devices="tripinfo_44" vType="DEFAULT_VEHTYPE" speedFactor="1.04" vaporized=""/>
    <tripinfo id="48" depart="97.00" departLane="-E8_0" departPos="5.10" departSpeed="0.00" departDelay="1.00" arrival="232.00" arrivalLane="E16_0" arrivalPos="35.57" arrivalSpeed="11.00" duration="135.00" routeLength="225.02" waitingTime="94.00" waitingCount="4" stopTime="0.00" timeLoss="114.49" rerouteNo="0" devices="tripinfo_48" vType="DEFAULT_VEHTYPE" speedFactor="0.88" vaporized=""/>
    <tripinfo id="94" depart="188.00" departLane="-E19_0" departPos="5.10" departSpeed="0.00" departDelay="0.00" arrival="235.00" arrivalLane="E14_0" arrivalPos="27.81" arrivalSpeed="13.99" duration="47.00" routeLength="218.65" waitingTime="11.00" waitingCount="2" stopTime="0.00" timeLoss="31.59" rerouteNo="0" devices="tripinfo_94" vType="DEFAULT_VEHTYPE" speedFactor="1.09" vaporized=""/>
    <tripinfo id="49" depart="98.00" departLane="-E9_0" departPos="5.10" departSpeed="0.00" departDelay="0.00" arrival="240.00" arrivalLane="-E4_0" arrivalPos="27.10" arrivalSpeed="10.76" duration="142.00" routeLength="306.97" waitingTime="81.00" waitingCount="4" stopTime="0.00" timeLoss="112.18" rerouteNo="0" devices="tripinfo_49" vType="DEFAULT_VEHTYPE" speedFactor="0.85" vaporized=""/>
    <tripinfo id="71" depart="142.00" departLane="E8_0" departPos="5.10" departSpeed="0.00" departDelay="0.00" arrival="240.00" arrivalLane="E22_0" arrivalPos="33.36" arrivalSpeed="12.49" duration="98.00" routeLength="151.35" waitingTime="52.00" waitingCount="4" stopTime="0.00" timeLoss="85.14" rerouteNo="0" devices="tripinfo_71" vType="DEFAULT_VEHTYPE" speedFactor="0.97" vaporized=""/>
    <tripinfo id="91" depart="182.00" departLane="-E19_0" departPos="5.10" departSpeed="0.00" departDelay="0.00" arrival="241.00" arrivalLane="-E6_0" arrivalPos="54.42" arrivalSpeed="11.41" duration="59.00" routeLength="232.87" waitingTime="25.00" waitingCount="1" stopTime="0.00" timeLoss="37.00" rerouteNo="0" devices="tripinfo_91" vType="DEFAULT_VEHTYPE" speedFactor="0.89" vaporized=""/>
    <tripinfo id="59" depart="118.00" departLane="-E9_0" departPos="5.10" departSpeed="0.00" departDelay="0.00" arrival="242.00" arrivalLane="-E4_0" arrivalPos="27.10" arrivalSpeed="11.85" duration="124.00" routeLength="306.97" waitingTime="66.00" waitingCount="3" stopTime="0.00" timeLoss="97.56" rerouteNo="0" devices="tripinfo_59" vType="DEFAULT_VEHTYPE" speedFactor="0.97" vaporized=""/>
    <tripinfo id="76" depart="152.00" departLane="-E8_0" departPos="5.10" departSpeed="0.00" departDelay="0.00" arrival="244.00" arrivalLane="-E4_0" arrivalPos="27.10" arrivalSpeed="11.32" duration="92.00" routeLength="256.90" waitingTime="47.00" waitingCount="2" stopTime="0.00" timeLoss="71.89" rerouteNo="0" devices="tripinfo_76" vType="DEFAULT_VEHTYPE" speedFactor="1.03" vaporized=""/>
    <tripinfo id="79" depart="158.00" departLane="E7_0" departPos="5.10" departSpeed="0.00" departDelay="0.00" arrival="246.00" arrivalLane="E16_0" arrivalPos="35.57" arrivalSpeed="14.67" duration="88.00" routeLength="249.99" waitingTime="47.00" waitingCount="3" stopTime="0.00" timeLoss="68.36" rerouteNo="0" devices="tripinfo_79" vType="DEFAULT_VEHTYPE" speedFactor="1.09" vaporized=""/>
    <tripinfo id="80" depart="160.00" departLane="-E20_0" departPos="5.10" departSpeed="0.00" departDelay="0.00" arrival="249.00" arrivalLane="E7_0" arrivalPos="29.56" arrivalSpeed="11.67" duration="89.00" routeLength="234.50" waitingTime="42.00" waitingCount="4" stopTime="0.00" timeLoss="69.98" rerouteNo="0" devices="tripinfo_80" vType="DEFAULT_VEHTYPE" speedFactor="1.03" vaporized=""/>
    <tripinfo id="89" depart="189.00" departLane="-E9_0" departPos="5.10" departSpeed="0.00" departDelay="11.00" arrival="254.00" arrivalLane="E16_0" arrivalPos="35.57" arrivalSpeed="13.85" duration="65.00" routeLength="275.09" waitingTime="20.00" waitingCount="3" stopTime="0.00" timeLoss="43.77" rerouteNo="0" devices="tripinfo_89" vType="DEFAULT_VEHTYPE" speedFactor="1.02" vaporized=""/>
    <tripinfo id="51" depart="102.00" departLane="-E18_0" departPos="5.10" departSpeed="0.00" departDelay="0.00" arrival="255.00" arrivalLane="E2_0" arrivalPos="39.12" arrivalSpeed="7.07" duration="153.00" routeLength="184.60" waitingTime="108.00" waitingCount="6" stopTime="0.00" timeLoss="140.47" rerouteNo="0" devices="tripinfo_51" vType="DEFAULT_VEHTYPE" speedFactor="1.17" vaporized=""/>
    <tripinfo id="25" depart="50.00" departLane="-E8_0" departPos="5.10" departSpeed="0.00" departDelay="0.00" arrival="256.00" arrivalLane="E9_0" arrivalPos="40.96" arrivalSpeed="10.94" duration="206.00" routeLength="424.16" waitingTime="142.00" waitingCount="4" stopTime="0.00" timeLoss="167.51" rerouteNo="0" devices="tripinfo_25" vType="DEFAULT_VEHTYPE" speedFactor="0.87" vaporized=""/>