<?xml version="1.0" encoding="UTF-8"?>

<!-- generated on 2026-06-05T16:22:47.014125+09:00 by Eclipse SUMO GUI 1.26.0
<sumoConfiguration xmlns:xsi="http://www.w3.org/2001/XMLSchema-instance" xsi:noNamespaceSchemaLocation="http://sumo.dlr.de/xsd/sumoConfiguration.xsd">

    <input>
        <net-file value="C:\Users\GLAB-PC002\Desktop\sumo_project\map.net.xml"/>
        <route-files value="C:\Users\GLAB-PC002\Desktop\sumo_project\car.rou.xml"/>
        <additional-files value="C:\Users\GLAB-PC002\Desktop\sumo_project\edgeData.add.xml"/>
    </input>

    <output>
        <tripinfo-output value="C:\Users\GLAB-PC002\Desktop\sumo_project\tripinfo.xml"/>
    </output>

    <time>
        <begin value="0"/>
        <end value="500"/>
    </time>

    <traci_server>
        <remote-port value="55846"/>
    </traci_server>

</sumoConfiguration>
-->

<tripinfos xmlns:xsi="http://www.w3.org/2001/XMLSchema-instance" xsi:noNamespaceSchemaLocation="http://sumo.dlr.de/xsd/tripinfo_file.xsd">
    <tripinfo id="2" depart="4.00" departLane="-E8_0" departPos="5.10" departSpeed="0.00" departDelay="0.00" arrival="21.00" arrivalLane="E3_0" arrivalPos="33.94" arrivalSpeed="13.83" duration="17.00" routeLength="150.38" waitingTime="0.00" waitingCount="0" stopTime="0.00" timeLoss="4.90" rerouteNo="0" devices="tripinfo_2" vType="DEFAULT_VEHTYPE" speedFactor="1.01" vaporized=""/>
    <tripinfo id="3" depart="6.00" departLane="-E19_0" departPos="5.10" departSpeed="0.00" departDelay="0.00" arrival="22.00" arrivalLane="-E3_0" arrivalPos="33.94" arrivalSpeed="9.69" duration="16.00" routeLength="62.11" waitingTime="0.00" waitingCount="0" stopTime="0.00" timeLoss="11.68" rerouteNo="0" devices="tripinfo_3" vType="DEFAULT_VEHTYPE@3" speedFactor="1.08" vaporized=""/>
    <tripinfo id="0" depart="0.00" departLane="-E6_0" departPos="5.10" departSpeed="0.00" departDelay="0.00" arrival="28.00" arrivalLane="E8_0" arrivalPos="58.81" arrivalSpeed="13.91" duration="28.00" routeLength="219.04" waitingTime="0.00" waitingCount="0" stopTime="0.00" timeLoss="11.82" rerouteNo="0" devices="tripinfo_0" vType="DEFAULT_VEHTYPE@0" speedFactor="1.06" vaporized=""/>
    <tripinfo id="1" depart="2.00" departLane="-E22_0" departPos="5.10" departSpeed="0.00" departDelay="0.00" arrival="28.00" arrivalLane="E20_0" arrivalPos="21.59" arrivalSpeed="12.32" duration="26.00" routeLength="250.98" waitingTime="0.00" waitingCount="0" stopTime="0.00" timeLoss="5.59" rerouteNo="0" devices="tripinfo_1" vType="DEFAULT_VEHTYPE" speedFactor="0.94" vaporized=""/>
    <tripinfo id="9" depart="18.00" departLane="E0_0" departPos="5.10" departSpeed="0.00" departDelay="0.00" arrival="29.00" arrivalLane="E0_0" arrivalPos="59.98" arrivalSpeed="10.71" duration="11.00" routeLength="54.88" waitingTime="0.00" waitingCount="0" stopTime="0.00" timeLoss="6.06" rerouteNo="0" devices="tripinfo_9" vType="DEFAULT_VEHTYPE@9" speedFactor="0.86" vaporized=""/>
    <tripinfo id="12" depart="24.00" departLane="-E19_0" departPos="5.10" departSpeed="0.00" departDelay="0.00" arrival="39.00" arrivalLane="E13_0" arrivalPos="27.85" arrivalSpeed="13.83" duration="15.00" routeLength="158.15" waitingTime="0.00" waitingCount="0" stopTime="0.00" timeLoss="3.59" rerouteNo="0" devices="tripinfo_12" vType="DEFAULT_VEHTYPE" speedFactor="1.05" vaporized=""/>
    <tripinfo id="14" depart="28.00" departLane="E7_0" departPos="5.10" departSpeed="0.00" departDelay="0.00" arrival="40.00" arrivalLane="E20_0" arrivalPos="21.59" arrivalSpeed="12.17" duration="12.00" routeLength="61.04" waitingTime="0.00" waitingCount="0" stopTime="0.00" timeLoss="7.38" rerouteNo="0" devices="tripinfo_14" vType="DEFAULT_VEHTYPE" speedFactor="0.99" vaporized=""/>
    <tripinfo id="7" depart="14.00" departLane="E9_0" departPos="5.10" departSpeed="0.00" departDelay="0.00" arrival="43.00" arrivalLane="E17_0" arrivalPos="36.04" arrivalSpeed="11.83" duration="29.00" routeLength="273.04" waitingTime="0.00" waitingCount="0" stopTime="0.00" timeLoss="6.05" rerouteNo="0" devices="tripinfo_7" vType="DEFAULT_VEHTYPE" speedFactor="0.89" vaporized=""/>
    <tripinfo id="11" depart="22.00" departLane="-E16_0" departPos="5.10" departSpeed="0.00" departDelay="0.00" arrival="43.00" arrivalLane="E15_0" arrivalPos="42.32" arrivalSpeed="13.08" duration="21.00" routeLength="130.75" waitingTime="0.00" waitingCount="0" stopTime="0.00" timeLoss="10.48" rerouteNo="0" devices="tripinfo_11" vType="DEFAULT_VEHTYPE@11" speedFactor="1.03" vaporized=""/>
    <tripinfo id="4" depart="8.00" departLane="-E13_0" departPos="5.10" departSpeed="0.00" departDelay="0.00" arrival="45.00" arrivalLane="-E1_0" arrivalPos="58.45" arrivalSpeed="14.04" duration="37.00" routeLength="216.56" waitingTime="0.00" waitingCount="0" stopTime="0.00" timeLoss="19.19" rerouteNo="0" devices="tripinfo_4" vType="DEFAULT_VEHTYPE@4" speedFactor="1.03" vaporized=""/>
    <tripinfo id="18" depart="37.00" departLane="-E6_0" departPos="5.10" departSpeed="0.00" departDelay="1.00" arrival="45.00" arrivalLane="-E6_0" arrivalPos="54.42" arrivalSpeed="12.26" duration="8.00" routeLength="49.32" waitingTime="0.00" waitingCount="0" stopTime="0.00" timeLoss="3.38" rerouteNo="0" devices="tripinfo_18" vType="DEFAULT_VEHTYPE" speedFactor="0.94" vaporized=""/>
    <tripinfo id="10" depart="20.00" departLane="-E19_0" departPos="5.10" departSpeed="0.00" departDelay="0.00" arrival="46.00" arrivalLane="E14_0" arrivalPos="27.81" arrivalSpeed="15.07" duration="26.00" routeLength="218.65" waitingTime="0.00" waitingCount="0" stopTime="0.00" timeLoss="10.19" rerouteNo="0" devices="tripinfo_10" vType="DEFAULT_VEHTYPE@10" speedFactor="1.09" vaporized=""/>
    <tripinfo id="21" depart="42.00" departLane="-E20_0" departPos="5.10" departSpeed="0.00" departDelay="0.00" arrival="50.00" arrivalLane="-E7_0" arrivalPos="29.56" arrivalSpeed="13.72" duration="8.00" routeLength="60.76" waitingTime="0.00" waitingCount="0" stopTime="0.00" timeLoss="3.01" rerouteNo="0" devices="tripinfo_21" vType="DEFAULT_VEHTYPE" speedFactor="1.01" vaporized=""/>
    <tripinfo id="13" depart="26.00" departLane="E0_0" departPos="5.10" departSpeed="0.00" departDelay="0.00" arrival="53.00" arrivalLane="-E11_0" arrivalPos="38.72" arrivalSpeed="14.09" duration="27.00" routeLength="181.19" waitingTime="0.00" waitingCount="0" stopTime="0.00" timeLoss="14.93" rerouteNo="0" devices="tripinfo_13" vType="DEFAULT_VEHTYPE@13" speedFactor="1.12" vaporized=""/>
    <tripinfo id="5" depart="10.00" departLane="E10_0" departPos="5.10" departSpeed="0.00" departDelay="0.00" arrival="57.00" arrivalLane="-E4_0" arrivalPos="27.10" arrivalSpeed="7.31" duration="47.00" routeLength="327.16" waitingTime="0.00" waitingCount="0" stopTime="0.00" timeLoss="15.79" rerouteNo="0" devices="tripinfo_5" vType="DEFAULT_VEHTYPE@5" speedFactor="0.83" vaporized=""/>
    <tripinfo id="8" depart="16.00" departLane="-E15_0" departPos="5.10" departSpeed="0.00" departDelay="0.00" arrival="59.00" arrivalLane="E2_0" arrivalPos="39.12" arrivalSpeed="12.73" duration="43.00" routeLength="207.17" waitingTime="0.00" waitingCount="0" stopTime="0.00" timeLoss="25.03" rerouteNo="0" devices="tripinfo_8" vType="DEFAULT_VEHTYPE@8" speedFactor="0.94" vaporized=""/>
    <tripinfo id="15" depart="30.00" departLane="-E18_0" departPos="5.10" departSpeed="0.00" departDelay="0.00" arrival="59.00" arrivalLane="E13_0" arrivalPos="27.85" arrivalSpeed="12.56" duration="29.00" routeLength="227.03" waitingTime="0.00" waitingCount="0" stopTime="0.00" timeLoss="10.11" rerouteNo="0" devices="tripinfo_15" vType="DEFAULT_VEHTYPE@15" speedFactor="0.93" vaporized=""/>
    <tripinfo id="19" depart="38.00" departLane="-E2_0" departPos="5.10" departSpeed="0.00" departDelay="0.00" arrival="59.00" arrivalLane="-E4_0" arrivalPos="27.10" arrivalSpeed="14.04" duration="21.00" routeLength="188.92" waitingTime="0.00" waitingCount="0" stopTime="0.00" timeLoss="7.75" rerouteNo="0" devices="tripinfo_19" vType="DEFAULT_VEHTYPE" speedFactor="1.16" vaporized=""/>
    <tripinfo id="26" depart="52.00" departLane="-E14_0" departPos="5.10" departSpeed="0.00" departDelay="0.00" arrival="65.00" arrivalLane="-E10_0" arrivalPos="63.43" arrivalSpeed="12.66" duration="13.00" routeLength="95.39" waitingTime="0.00" waitingCount="0" stopTime="0.00" timeLoss="4.11" rerouteNo="0" devices="tripinfo_26" vType="DEFAULT_VEHTYPE" speedFactor="0.92" vaporized=""/>
    <tripinfo id="6" depart="12.00" departLane="-E15_0" departPos="5.10" departSpeed="0.00" departDelay="0.00" arrival="69.00" arrivalLane="E4_0" arrivalPos="27.10" arrivalSpeed="6.33" duration="57.00" routeLength="285.51" waitingTime="0.00" waitingCount="0" stopTime="0.00" timeLoss="36.19" rerouteNo="0" devices="tripinfo_6" vType="DEFAULT_VEHTYPE@6" speedFactor="1.05" vaporized=""/>
    <tripinfo id="17" depart="34.00" departLane="-E8_0" departPos="5.10" departSpeed="0.00" departDelay="0.00" arrival="76.00" arrivalLane="-E9_0" arrivalPos="40.96" arrivalSpeed="9.93" duration="42.00" routeLength="221.17" waitingTime="1.00" waitingCount="1" stopTime="0.00" timeLoss="23.10" rerouteNo="0" devices="tripinfo_17" vType="DEFAULT_VEHTYPE@17" speedFactor="0.94" vaporized=""/>
    <tripinfo id="20" depart="40.00" departLane="-E0_0" departPos="5.10" departSpeed="0.00" departDelay="0.00" arrival="78.00" arrivalLane="E13_0" arrivalPos="27.85" arrivalSpeed="13.27" duration="38.00" routeLength="214.95" waitingTime="0.00" waitingCount="0" stopTime="0.00" timeLoss="20.38" rerouteNo="0" devices="tripinfo_20" vType="DEFAULT_VEHTYPE@20" speedFactor="1.02" vaporized=""/>
    <tripinfo id="22" depart="44.00" departLane="-E19_0" departPos="5.10" departSpeed="0.00" departDelay="0.00" arrival="80.00" arrivalLane="-E4_0" arrivalPos="27.10" arrivalSpeed="12.21" duration="36.00" routeLength="125.09" waitingTime="0.00" waitingCount="0" stopTime="0.00" timeLoss="24.47" rerouteNo="0" devices="tripinfo_22" vType="DEFAULT_VEHTYPE@22" speedFactor="0.97" vaporized=""/>
    <tripinfo id="31" depart="62.00" departLane="-E21_0" departPos="5.10" departSpeed="0.00" departDelay="0.00" arrival="82.00" arrivalLane="-E9_0" arrivalPos="40.96" arrivalSpeed="10.81" duration="20.00" routeLength="108.12" waitingTime="0.00" waitingCount="0" stopTime="0.00" timeLoss="12.17" rerouteNo="0" devices="tripinfo_31" vType="DEFAULT_VEHTYPE@31" speedFactor="1.15" vaporized=""/>
    <tripinfo id="28" depart="56.00" departLane="-E15_0" departPos="5.10" departSpeed="0.00" departDelay="0.00" arrival="85.00" arrivalLane="E2_0" arrivalPos="39.12" arrivalSpeed="15.30" duration="29.00" routeLength="207.17" waitingTime="0.00" waitingCount="0" stopTime="0.00" timeLoss="12.91" rerouteNo="0" devices="tripinfo_28" vType="DEFAULT_VEHTYPE@28" speedFactor="1.13" vaporized=""/>
    <tripinfo id="24" depart="48.00" departLane="-E22_0" departPos="5.10" departSpeed="0.00" departDelay="0.00" arrival="88.00" arrivalLane="-E2_0" arrivalPos="39.12" arrivalSpeed="11.30" duration="40.00" routeLength="199.75" waitingTime="2.00" waitingCount="1" stopTime="0.00" timeLoss="19.86" rerouteNo="0" devices="tripinfo_24" vType="DEFAULT_VEHTYPE@24" speedFactor="0.83" vaporized=""/>
    <tripinfo id="27" depart="54.00" departLane="-E2_0" departPos="5.10" departSpeed="0.00" departDelay="0.00" arrival="89.00" arrivalLane="-E3_0" arrivalPos="33.94" arrivalSpeed="12.28" duration="35.00" routeLength="252.82" waitingTime="0.00" waitingCount="0" stopTime="0.00" timeLoss="12.89" rerouteNo="0" devices="tripinfo_27" vType="DEFAULT_VEHTYPE@27" speedFactor="0.95" vaporized=""/>
    <tripinfo id="16" depart="32.00" departLane="-E12_0" departPos="5.10" departSpeed="0.00" departDelay="0.00" arrival="91.00" arrivalLane="E20_0" arrivalPos="21.59" arrivalSpeed="11.23" duration="59.00" routeLength="297.74" waitingTime="0.00" waitingCount="0" stopTime="0.00" timeLoss="32.39" rerouteNo="0" devices="tripinfo_16" vType="DEFAULT_VEHTYPE@16" speedFactor="0.88" vaporized=""/>
    <tripinfo id="29" depart="58.00" departLane="-E8_0" departPos="5.10" departSpeed="0.00" departDelay="0.00" arrival="92.00" arrivalLane="E4_0" arrivalPos="27.10" arrivalSpeed="12.68" duration="34.00" routeLength="212.66" waitingTime="0.00" waitingCount="0" stopTime="0.00" timeLoss="15.63" rerouteNo="0" devices="tripinfo_29" vType="DEFAULT_VEHTYPE@29" speedFactor="0.93" vaporized=""/>
    <tripinfo id="42" depart="84.00" departLane="-E5_0" departPos="5.10" departSpeed="0.00" departDelay="0.00" arrival="95.00" arrivalLane="E18_0" arrivalPos="25.15" arrivalSpeed="12.20" duration="11.00" routeLength="95.28" waitingTime="0.00" waitingCount="0" stopTime="0.00" timeLoss="4.32" rerouteNo="0" devices="tripinfo_42" vType="DEFAULT_VEHTYPE" speedFactor="1.09" vaporized=""/>
    <tripinfo id="23" depart="51.00" departLane="-E5_0" departPos="5.10" departSpeed="0.00" departDelay="5.00" arrival="101.00" arrivalLane="-E2_0" arrivalPos="39.12" arrivalSpeed="12.19" duration="50.00" routeLength="264.10" waitingTime="0.00" waitingCount="0" stopTime="0.00" timeLoss="27.06" rerouteNo="0" devices="tripinfo_23" vType="DEFAULT_VEHTYPE@23" speedFactor="0.89" vaporized=""/>
    <tripinfo id="25" depart="50.00" departLane="-E8_0" departPos="5.10" departSpeed="0.00" departDelay="0.00" arrival="103.00" arrivalLane="E9_0" arrivalPos="40.96" arrivalSpeed="11.77" duration="53.00" routeLength="424.16" waitingTime="0.00" waitingCount="0" stopTime="0.00" timeLoss="13.77" rerouteNo="0" devices="tripinfo_25" vType="DEFAULT_VEHTYPE" speedFactor="0.87" vaporized=""/>
    <tripinfo id="30" depart="60.00" departLane="-E13_0" departPos="5.10" departSpeed="0.00" departDelay="0.00" arrival="103.00" arrivalLane="-E3_0" arrivalPos="33.94" arrivalSpeed="6.43" duration="43.00" routeLength="295.17" waitingTime="0.00" waitingCount="0" stopTime="0.00" timeLoss="22.64" rerouteNo="0" devices="tripinfo_30" vType="DEFAULT_VEHTYPE@30" speedFactor="1.18" vaporized=""/>
    <tripinfo id="34" depart="68.00" departLane="E6_0" departPos="5.10" departSpeed="0.00" departDelay="0.00" arrival="104.00" arrivalLane="E2_0" arrivalPos="39.12" arrivalSpeed="12.25" duration="36.00" routeLength="214.85" waitingTime="0.00" waitingCount="0" stopTime="0.00" timeLoss="17.92" rerouteNo="0" devices="tripinfo_34" vType="DEFAULT_VEHTYPE@34" speedFactor="0.99" vaporized=""/>
    <tripinfo id="45" depart="90.00" departLane="E3_0" departPos="5.10" departSpeed="0.00" departDelay="0.00" arrival="105.00" arrivalLane="E3_0" arrivalPos="33.94" arrivalSpeed="2.65" duration="15.00" routeLength="28.84" waitingTime="0.00" waitingCount="0" stopTime="0.00" timeLoss="12.99" rerouteNo="0" devices="tripinfo_45" vType="DEFAULT_VEHTYPE@45" speedFactor="1.09" vaporized=""/>
    <tripinfo id="36" depart="72.00" departLane="-E12_0" departPos="5.10" departSpeed="0.00" departDelay="0.00" arrival="106.00" arrivalLane="E0_0" arrivalPos="59.98" arrivalSpeed="8.84" duration="34.00" routeLength="155.03" waitingTime="0.00" waitingCount="0" stopTime="0.00" timeLoss="21.15" rerouteNo="0" devices="tripinfo_36" vType="DEFAULT_VEHTYPE@36" speedFactor="0.97" vaporized=""/>
    <tripinfo id="32" depart="64.00" departLane="E10_0" departPos="5.10" departSpeed="0.00" departDelay="0.00" arrival="112.00" arrivalLane="E8_0" arrivalPos="58.81" arrivalSpeed="13.24" duration="48.00" routeLength="295.67" waitingTime="0.00" waitingCount="0" stopTime="0.00" timeLoss="24.03" rerouteNo="0" devices="tripinfo_32" vType="DEFAULT_VEHTYPE@32" speedFactor="1.01" vaporized=""/>
    <tripinfo id="44" depart="88.00" departLane="-E20_0" departPos="5.10" departSpeed="0.00" departDelay="0.00" arrival="112.00" arrivalLane="E15_0" arrivalPos="42.32" arrivalSpeed="14.19" duration="24.00" routeLength="166.89" waitingTime="0.00" waitingCount="0" stopTime="0.00" timeLoss="11.73" rerouteNo="0" devices="tripinfo_44" vType="DEFAULT_VEHTYPE@44" speedFactor="1.04" vaporized=""/>
    <tripinfo id="39" depart="78.00" departLane="-E14_0" departPos="5.10" departSpeed="0.00" departDelay="0.00" arrival="114.00" arrivalLane="E8_0" arrivalPos="58.81" arrivalSpeed="12.43" duration="36.00" routeLength="168.76" waitingTime="1.00" waitingCount="1" stopTime="0.00" timeLoss="21.73" rerouteNo="0" devices="tripinfo_39" vType="DEFAULT_VEHTYPE@39" speedFactor="0.90" vaporized=""/>
    <tripinfo id="40" depart="80.00" departLane="E0_0" departPos="5.10" departSpeed="0.00" departDelay="0.00" arrival="115.00" arrivalLane="-E5_0" arrivalPos="60.98" arrivalSpeed="14.16" duration="35.00" routeLength="167.89" waitingTime="0.00" waitingCount="0" stopTime="0.00" timeLoss="21.50" rerouteNo="0" devices="tripinfo_40" vType="DEFAULT_VEHTYPE@40" speedFactor="1.03" vaporized=""/>
    <tripinfo id="38" depart="76.00" departLane="E3_0" departPos="5.10" departSpeed="0.00" departDelay="0.00" arrival="118.00" arrivalLane="-E1_0" arrivalPos="58.45" arrivalSpeed="14.64" duration="42.00" routeLength="215.03" waitingTime="0.00" waitingCount="0" stopTime="0.00" timeLoss="25.45" rerouteNo="0" devices="tripinfo_38" vType="DEFAULT_VEHTYPE@38" speedFactor="1.10" vaporized=""/>
    <tripinfo id="33" depart="68.00" departLane="E4_0" departPos="5.10" departSpeed="0.00" departDelay="2.00" arrival="120.00" arrivalLane="E14_0" arrivalPos="27.81" arrivalSpeed="15.17" duration="52.00" routeLength="307.55" waitingTime="0.00" waitingCount="0" stopTime="0.00" timeLoss="31.58" rerouteNo="0" devices="tripinfo_33" vType="DEFAULT_VEHTYPE@33" speedFactor="1.17" vaporized=""/>
    <tripinfo id="50" depart="100.00" departLane="-E2_0" departPos="5.10" departSpeed="0.00" departDelay="0.00" arrival="120.00" arrivalLane="E19_0" arrivalPos="18.28" arrivalSpeed="11.82" duration="20.00" routeLength="115.28" waitingTime="0.00" waitingCount="0" stopTime="0.00" timeLoss="10.16" rerouteNo="0" devices="tripinfo_50" vType="DEFAULT_VEHTYPE@50" speedFactor="0.85" vaporized=""/>
    <tripinfo id="37" depart="78.00" departLane="-E4_0" departPos="5.10" departSpeed="0.00" departDelay="4.00" arrival="121.00" arrivalLane="-E5_0" arrivalPos="60.98" arrivalSpeed="13.69" duration="43.00" routeLength="204.43" waitingTime="0.00" waitingCount="0" stopTime="0.00" timeLoss="27.95" rerouteNo="0" devices="tripinfo_37" vType="DEFAULT_VEHTYPE@37" speedFactor="1.18" vaporized=""/>
    <tripinfo id="35" depart="73.00" departLane="-E2_0" departPos="5.10" departSpeed="0.00" departDelay="3.00" arrival="123.00" arrivalLane="-E1_0" arrivalPos="58.45" arrivalSpeed="13.36" duration="50.00" routeLength="268.59" waitingTime="1.00" waitingCount="1" stopTime="0.00" timeLoss="28.20" rerouteNo="0" devices="tripinfo_35" vType="DEFAULT_VEHTYPE@35" speedFactor="1.02" vaporized=""/>
    <tripinfo id="43" depart="86.00" departLane="E0_0" departPos="5.10" departSpeed="0.00" departDelay="0.00" arrival="123.00" arrivalLane="E12_0" arrivalPos="30.33" arrivalSpeed="12.04" duration="37.00" routeLength="220.86" waitingTime="0.00" waitingCount="0" stopTime="0.00" timeLoss="19.79" rerouteNo="0" devices="tripinfo_43" vType="DEFAULT_VEHTYPE@43" speedFactor="1.04" vaporized=""/>
    <tripinfo id="41" depart="82.00" departLane="E6_0" departPos="5.10" departSpeed="0.00" departDelay="0.00" arrival="126.00" arrivalLane="E12_0" arrivalPos="30.33" arrivalSpeed="13.28" duration="44.00" routeLength="336.06" waitingTime="0.00" waitingCount="0" stopTime="0.00" timeLoss="16.04" rerouteNo="0" devices="tripinfo_41" vType="DEFAULT_VEHTYPE@41" speedFactor="0.96" vaporized=""/>
    <tripinfo id="53" depart="106.00" departLane="-E9_0" departPos="5.10" departSpeed="0.00" departDelay="0.00" arrival="128.00" arrivalLane="E13_0" arrivalPos="27.85" arrivalSpeed="15.10" duration="22.00" routeLength="145.93" waitingTime="0.00" waitingCount="0" stopTime="0.00" timeLoss="10.31" rerouteNo="0" devices="tripinfo_53" vType="DEFAULT_VEHTYPE@53" speedFactor="1.10" vaporized=""/>
    <tripinfo id="60" depart="120.00" departLane="-E21_0" departPos="5.10" departSpeed="0.00" departDelay="0.00" arrival="129.00" arrivalLane="E5_0" arrivalPos="60.98" arrivalSpeed="14.63" duration="9.00" routeLength="86.71" waitingTime="0.00" waitingCount="0" stopTime="0.00" timeLoss="3.10" rerouteNo="0" devices="tripinfo_60" vType="DEFAULT_VEHTYPE" speedFactor="1.08" vaporized=""/>
    <tripinfo id="46" depart="92.00" departLane="E9_0" departPos="5.10" departSpeed="0.00" departDelay="0.00" arrival="131.00" arrivalLane="-E1_0" arrivalPos="58.45" arrivalSpeed="13.67" duration="39.00" routeLength="339.62" waitingTime="0.00" waitingCount="0" stopTime="0.00" timeLoss="12.92" rerouteNo="0" devices="tripinfo_46" vType="DEFAULT_VEHTYPE@46" speedFactor="1.00" vaporized=""/>
    <tripinfo id="51" depart="102.00" departLane="-E18_0" departPos="5.10" departSpeed="0.00" departDelay="0.00" arrival="134.00" arrivalLane="E2_0" arrivalPos="39.12" arrivalSpeed="14.25" duration="32.00" routeLength="184.60" waitingTime="0.00" waitingCount="0" stopTime="0.00" timeLoss="18.84" rerouteNo="0" devices="tripinfo_51" vType="DEFAULT_VEHTYPE@51" speedFactor="1.17" vaporized=""/>
    <tripinfo id="48" depart="96.00" departLane="-E8_0" departPos="5.10" departSpeed="0.00" departDelay="0.00" arrival="139.00" arrivalLane="E16_0" arrivalPos="35.57" arrivalSpeed="12.13" duration="43.00" routeLength="225.02" waitingTime="0.00" waitingCount="0" stopTime="0.00" timeLoss="22.26" rerouteNo="0" devices="tripinfo_48" vType="DEFAULT_VEHTYPE@48" speedFactor="0.88" vaporized=""/>
    <tripinfo id="55" depart="110.00" departLane="E9_0" departPos="5.10" departSpeed="0.00" departDelay="0.00" arrival="139.00" arrivalLane="E6_0" arrivalPos="54.42" arrivalSpeed="13.02" duration="29.00" routeLength="222.28" waitingTime="0.00" waitingCount="0" stopTime="0.00" timeLoss="12.27" rerouteNo="0" devices="tripinfo_55" vType="DEFAULT_VEHTYPE@55" speedFactor="1.00" vaporized=""/>
    <tripinfo id="61" depart="122.00" departLane="-E13_0" departPos="5.10" departSpeed="0.00" departDelay="0.00" arrival="148.00" arrivalLane="E19_0" arrivalPos="18.28" arrivalSpeed="13.74" duration="26.00" routeLength="157.63" waitingTime="0.00" waitingCount="0" stopTime="0.00" timeLoss="15.39" rerouteNo="0" devices="tripinfo_61" vType="DEFAULT_VEHTYPE@61" speedFactor="1.12" vaporized=""/>
    <tripinfo id="64" depart="128.00" departLane="-E19_0" departPos="5.10" departSpeed="0.00" departDelay="0.00" arrival="148.00" arrivalLane="E17_0" arrivalPos="36.04" arrivalSpeed="12.41" duration="20.00" routeLength="128.65" waitingTime="0.00" waitingCount="0" stopTime="0.00" timeLoss="9.61" rerouteNo="0" devices="tripinfo_64" vType="DEFAULT_VEHTYPE@64" speedFactor="0.94" vaporized=""/>
    <tripinfo id="47" depart="94.00" departLane="E4_0" departPos="5.10" departSpeed="0.00" departDelay="0.00" arrival="149.00" arrivalLane="E23_0" arrivalPos="39.96" arrivalSpeed="11.76" duration="55.00" routeLength="326.97" waitingTime="1.00" waitingCount="1" stopTime="0.00" timeLoss="25.76" rerouteNo="0" devices="tripinfo_47" vType="DEFAULT_VEHTYPE" speedFactor="0.90" vaporized=""/>
    <tripinfo id="66" depart="132.00" departLane="-E23_0" departPos="5.10" departSpeed="0.00" departDelay="0.00" arrival="150.00" arrivalLane="E22_0" arrivalPos="33.36" arrivalSpeed="11.68" duration="18.00" routeLength="127.66" waitingTime="0.00" waitingCount="0" stopTime="0.00" timeLoss="6.19" rerouteNo="0" devices="tripinfo_66" vType="DEFAULT_VEHTYPE" speedFactor="0.91" vaporized=""/>
    <tripinfo id="67" depart="138.00" departLane="-E9_0" departPos="5.10" departSpeed="0.00" departDelay="4.00" arrival="157.00" arrivalLane="E23_0" arrivalPos="39.96" arrivalSpeed="12.35" duration="19.00" routeLength="90.17" waitingTime="0.00" waitingCount="0" stopTime="0.00" timeLoss="11.08" rerouteNo="0" devices="tripinfo_67" vType="DEFAULT_VEHTYPE@67" speedFactor="0.91" vaporized=""/>
    <tripinfo id="49" depart="98.00" departLane="-E9_0" departPos="5.10" departSpeed="0.00" departDelay="0.00" arrival="162.00" arrivalLane="-E4_0" arrivalPos="27.10" arrivalSpeed="7.39" duration="64.00" routeLength="306.97" waitingTime="0.00" waitingCount="0" stopTime="0.00" timeLoss="34.33" rerouteNo="0" devices="tripinfo_49" vType="DEFAULT_VEHTYPE@49" speedFactor="0.85" vaporized=""/>
    <tripinfo id="59" depart="120.00" departLane="-E9_0" departPos="5.10" departSpeed="0.00" departDelay="2.00" arrival="164.00" arrivalLane="-E4_0" arrivalPos="27.10" arrivalSpeed="8.01" duration="44.00" routeLength="306.97" waitingTime="0.00" waitingCount="0" stopTime="0.00" timeLoss="18.74" rerouteNo="0" devices="tripinfo_59" vType="DEFAULT_VEHTYPE@59" speedFactor="0.97" vaporized=""/>
    <tripinfo id="58" depart="122.00" departLane="E8_0" departPos="5.10" departSpeed="0.00" departDelay="6.00" arrival="166.00" arrivalLane="E9_0" arrivalPos="40.96" arrivalSpeed="5.45" duration="44.00" routeLength="108.87" waitingTime="0.00" waitingCount="0" stopTime="0.00" timeLoss="35.17" rerouteNo="0" devices="tripinfo_58" vType="DEFAULT_VEHTYPE@58" speedFactor="1.02" vaporized=""/>
    <tripinfo id="52" depart="104.00" departLane="E9_0" departPos="5.10" departSpeed="0.00" departDelay="0.00" arrival="167.00" arrivalLane="E23_0" arrivalPos="39.96" arrivalSpeed="13.23" duration="63.00" routeLength="291.18" waitingTime="1.00" waitingCount="1" stopTime="0.00" timeLoss="39.15" rerouteNo="0" devices="tripinfo_52" vType="DEFAULT_VEHTYPE@52" speedFactor="1.02" vaporized=""/>
    <tripinfo id="56" depart="112.00" departLane="-E22_0" departPos="5.10" departSpeed="0.00" departDelay="0.00" arrival="167.00" arrivalLane="-E10_0" arrivalPos="63.43" arrivalSpeed="11.74" duration="55.00" routeLength="307.12" waitingTime="0.00" waitingCount="0" stopTime="0.00" timeLoss="28.30" rerouteNo="0" devices="tripinfo_56" vType="DEFAULT_VEHTYPE@56" speedFactor="0.90" vaporized=""/>
    <tripinfo id="57" depart="115.00" departLane="E8_0" departPos="5.10" departSpeed="0.00" departDelay="1.00" arrival="169.00" arrivalLane="E4_0" arrivalPos="27.10" arrivalSpeed="12.96" duration="54.00" routeLength="150.50" waitingTime="2.00" waitingCount="1" stopTime="0.00" timeLoss="43.43" rerouteNo="0" devices="tripinfo_57" vType="DEFAULT_VEHTYPE@57" speedFactor="1.14" vaporized=""/>
    <tripinfo id="83" depart="166.00" departLane="-E9_0" departPos="5.10" departSpeed="0.00" departDelay="0.00" arrival="172.00" arrivalLane="-E9_0" arrivalPos="40.96" arrivalSpeed="12.72" duration="6.00" routeLength="35.86" waitingTime="0.00" waitingCount="0" stopTime="0.00" timeLoss="2.60" rerouteNo="0" devices="tripinfo_83" vType="DEFAULT_VEHTYPE" speedFactor="0.97" vaporized=""/>
    <tripinfo id="70" depart="140.00" departLane="-E4_0" departPos="5.10" departSpeed="0.00" departDelay="0.00" arrival="173.00" arrivalLane="E18_0" arrivalPos="25.15" arrivalSpeed="11.03" duration="33.00" routeLength="243.83" waitingTime="0.00" waitingCount="0" stopTime="0.00" timeLoss="12.52" rerouteNo="0" devices="tripinfo_70" vType="DEFAULT_VEHTYPE@70" speedFactor="1.02" vaporized=""/>
    <tripinfo id="62" depart="124.00" departLane="-E9_0" departPos="5.10" departSpeed="0.00" departDelay="0.00" arrival="176.00" arrivalLane="E7_0" arrivalPos="29.56" arrivalSpeed="11.17" duration="52.00" routeLength="273.90" waitingTime="0.00" waitingCount="0" stopTime="0.00" timeLoss="30.21" rerouteNo="0" devices="tripinfo_62" vType="DEFAULT_VEHTYPE@62" speedFactor="1.02" vaporized=""/>
    <tripinfo id="71" depart="144.00" departLane="E8_0" departPos="5.10" departSpeed="0.00" departDelay="2.00" arrival="179.00" arrivalLane="E22_0" arrivalPos="33.36" arrivalSpeed="13.36" duration="35.00" routeLength="151.35" waitingTime="0.00" waitingCount="0" stopTime="0.00" timeLoss="21.70" rerouteNo="0" devices="tripinfo_71" vType="DEFAULT_VEHTYPE@71" speedFactor="0.97" vaporized=""/>
    <tripinfo id="72" depart="145.00" departLane="E0_0" departPos="5.10" departSpeed="0.00" departDelay="1.00" arrival="181.00" arrivalLane="-E6_0" arrivalPos="54.42" arrivalSpeed="11.46" duration="36.00" routeLength="230.98" waitingTime="0.00" waitingCount="0" stopTime="0.00" timeLoss="15.94" rerouteNo="0" devices="tripinfo_72" vType="DEFAULT_VEHTYPE@72" speedFactor="0.94" vaporized=""/>
    <tripinfo id="65" depart="130.00" departLane="-E13_0" departPos="5.10" departSpeed="0.00" departDelay="0.00" arrival="186.00" arrivalLane="E0_0" arrivalPos="59.98" arrivalSpeed="7.32" duration="56.00" routeLength="220.09" waitingTime="2.00" waitingCount="1" stopTime="0.00" timeLoss="35.13" rerouteNo="0" devices="tripinfo_65" vType="DEFAULT_VEHTYPE@65" speedFactor="0.88" vaporized=""/>
    <tripinfo id="63" depart="126.00" departLane="-E0_0" departPos="5.10" departSpeed="0.00" departDelay="0.00" arrival="187.00" arrivalLane="-E6_0" arrivalPos="54.42" arrivalSpeed="13.10" duration="61.00" routeLength="407.51" waitingTime="0.00" waitingCount="0" stopTime="0.00" timeLoss="28.02" rerouteNo="0" devices="tripinfo_63" vType="DEFAULT_VEHTYPE@63" speedFactor="0.99" vaporized=""/>
    <tripinfo id="73" depart="146.00" departLane="-E16_0" departPos="5.10" departSpeed="0.00" departDelay="0.00" arrival="187.00" arrivalLane="E12_0" arrivalPos="30.33" arrivalSpeed="14.08" duration="41.00" routeLength="273.23" waitingTime="0.00" waitingCount="0" stopTime="0.00" timeLoss="21.02" rerouteNo="0" devices="tripinfo_73" vType="DEFAULT_VEHTYPE@73" speedFactor="1.06" vaporized=""/>
    <tripinfo id="78" depart="156.00" departLane="-E21_0" departPos="5.10" departSpeed="0.00" departDelay="0.00" arrival="191.00" arrivalLane="E13_0" arrivalPos="27.85" arrivalSpeed="13.11" duration="35.00" routeLength="231.14" waitingTime="0.00" waitingCount="0" stopTime="0.00" timeLoss="16.78" rerouteNo="0" devices="tripinfo_78" vType="DEFAULT_VEHTYPE@78" speedFactor="1.01" vaporized=""/>
    <tripinfo id="68" depart="136.00" departLane="-E18_0" departPos="5.10" departSpeed="0.00" departDelay="0.00" arrival="194.00" arrivalLane="-E6_0" arrivalPos="54.42" arrivalSpeed="14.28" duration="58.00" routeLength="307.31" waitingTime="0.00" waitingCount="0" stopTime="0.00" timeLoss="34.14" rerouteNo="0" devices="tripinfo_68" vType="DEFAULT_VEHTYPE@68" speedFactor="1.04" vaporized=""/>