<?xml version="1.0" encoding="UTF-8"?>

<!-- generated on 2026-04-20T18:57:03.206677+09:00 by Eclipse SUMO GUI 1.26.0
<sumoConfiguration xmlns:xsi="http://www.w3.org/2001/XMLSchema-instance" xsi:noNamespaceSchemaLocation="http://sumo.dlr.de/xsd/sumoConfiguration.xsd">

    <input>
        <net-file value="map.net.xml"/>
        <route-files value="car.rou.xml"/>
        <additional-files value="edgeData.add.xml"/>
    </input>

    <output>
        <tripinfo-output value="tripinfo.xml"/>
    </output>

    <time>
        <begin value="0"/>
        <end value="500"/>
    </time>

</sumoConfiguration>
-->

<tripinfos xmlns:xsi="http://www.w3.org/2001/XMLSchema-instance" xsi:noNamespaceSchemaLocation="http://sumo.dlr.de/xsd/tripinfo_file.xsd">
    <tripinfo id="0" depart="0.00" departLane="-E21_0" departPos="5.10" departSpeed="0.00" departDelay="0.00" arrival="16.00" arrivalLane="-E3_0" arrivalPos="33.94" arrivalSpeed="14.30" duration="16.00" routeLength="135.10" waitingTime="0.00" waitingCount="0" stopTime="0.00" timeLoss="5.70" rerouteNo="0" devices="tripinfo_0" vType="DEFAULT_VEHTYPE" speedFactor="1.06" vaporized=""/>
    <tripinfo id="4" depart="8.00" departLane="-E17_0" departPos="5.10" departSpeed="0.00" departDelay="0.00" arrival="24.00" arrivalLane="-E5_0" arrivalPos="60.98" arrivalSpeed="14.30" duration="16.00" routeLength="175.92" waitingTime="0.00" waitingCount="0" stopTime="0.00" timeLoss="3.65" rerouteNo="0" devices="tripinfo_4" vType="DEFAULT_VEHTYPE" speedFactor="1.03" vaporized=""/>
    <tripinfo id="10" depart="20.00" departLane="-E17_0" departPos="5.10" departSpeed="0.00" departDelay="0.00" arrival="37.00" arrivalLane="-E3_0" arrivalPos="33.94" arrivalSpeed="13.34" duration="17.00" routeLength="143.31" waitingTime="0.00" waitingCount="0" stopTime="0.00" timeLoss="5.83" rerouteNo="0" devices="tripinfo_10" vType="DEFAULT_VEHTYPE" speedFactor="1.09" vaporized=""/>
    <tripinfo id="8" depart="16.00" departLane="-E0_0" departPos="5.10" departSpeed="0.00" departDelay="0.00" arrival="51.00" arrivalLane="E22_0" arrivalPos="33.36" arrivalSpeed="12.97" duration="35.00" routeLength="102.72" waitingTime="18.00" waitingCount="1" stopTime="0.00" timeLoss="26.52" rerouteNo="0" devices="tripinfo_8" vType="DEFAULT_VEHTYPE" speedFactor="0.94" vaporized=""/>
    <tripinfo id="15" depart="30.00" departLane="-E16_0" departPos="5.10" departSpeed="0.00" departDelay="0.00" arrival="53.00" arrivalLane="-E11_0" arrivalPos="38.72" arrivalSpeed="11.60" duration="23.00" routeLength="78.23" waitingTime="7.00" waitingCount="1" stopTime="0.00" timeLoss="15.67" rerouteNo="0" devices="tripinfo_15" vType="DEFAULT_VEHTYPE" speedFactor="0.93" vaporized=""/>
    <tripinfo id="6" depart="12.00" departLane="-E2_0" departPos="5.10" departSpeed="0.00" departDelay="0.00" arrival="58.00" arrivalLane="E14_0" arrivalPos="27.81" arrivalSpeed="14.45" duration="46.00" routeLength="202.86" waitingTime="18.00" waitingCount="1" stopTime="0.00" timeLoss="29.89" rerouteNo="0" devices="tripinfo_6" vType="DEFAULT_VEHTYPE" speedFactor="1.05" vaporized=""/>
    <tripinfo id="11" depart="22.00" departLane="-E13_0" departPos="5.10" departSpeed="0.00" departDelay="0.00" arrival="58.00" arrivalLane="E12_0" arrivalPos="30.33" arrivalSpeed="12.42" duration="36.00" routeLength="130.05" waitingTime="15.00" waitingCount="1" stopTime="0.00" timeLoss="25.33" rerouteNo="0" devices="tripinfo_11" vType="DEFAULT_VEHTYPE" speedFactor="1.03" vaporized=""/>
    <tripinfo id="27" depart="55.00" departLane="-E1_0" departPos="5.10" departSpeed="0.00" departDelay="1.00" arrival="72.00" arrivalLane="E13_0" arrivalPos="27.85" arrivalSpeed="12.46" duration="17.00" routeLength="143.97" waitingTime="0.00" waitingCount="0" stopTime="0.00" timeLoss="5.54" rerouteNo="0" devices="tripinfo_27" vType="DEFAULT_VEHTYPE" speedFactor="0.95" vaporized=""/>
    <tripinfo id="31" depart="62.00" departLane="-E16_0" departPos="5.10" departSpeed="0.00" departDelay="0.00" arrival="82.00" arrivalLane="-E0_0" arrivalPos="59.98" arrivalSpeed="16.03" duration="20.00" routeLength="178.38" waitingTime="0.00" waitingCount="0" stopTime="0.00" timeLoss="8.01" rerouteNo="0" devices="tripinfo_31" vType="DEFAULT_VEHTYPE" speedFactor="1.15" vaporized=""/>
    <tripinfo id="20" depart="40.00" departLane="-E13_0" departPos="5.10" departSpeed="0.00" departDelay="0.00" arrival="93.00" arrivalLane="-E2_0" arrivalPos="39.12" arrivalSpeed="4.83" duration="53.00" routeLength="76.37" waitingTime="32.00" waitingCount="2" stopTime="0.00" timeLoss="47.57" rerouteNo="0" devices="tripinfo_20" vType="DEFAULT_VEHTYPE" speedFactor="1.02" vaporized=""/>
    <tripinfo id="32" depart="64.00" departLane="-E14_0" departPos="5.10" departSpeed="0.00" departDelay="0.00" arrival="94.00" arrivalLane="E11_0" arrivalPos="38.72" arrivalSpeed="6.57" duration="30.00" routeLength="76.10" waitingTime="15.00" waitingCount="1" stopTime="0.00" timeLoss="24.12" rerouteNo="0" devices="tripinfo_32" vType="DEFAULT_VEHTYPE" speedFactor="1.01" vaporized=""/>
    <tripinfo id="2" depart="4.00" departLane="-E19_0" departPos="5.10" departSpeed="0.00" departDelay="0.00" arrival="95.00" arrivalLane="E20_0" arrivalPos="21.59" arrivalSpeed="11.13" duration="91.00" routeLength="108.52" waitingTime="70.00" waitingCount="2" stopTime="0.00" timeLoss="81.60" rerouteNo="0" devices="tripinfo_2" vType="DEFAULT_VEHTYPE" speedFactor="1.01" vaporized=""/>
    <tripinfo id="41" depart="82.00" departLane="-E9_0" departPos="5.10" departSpeed="0.00" departDelay="0.00" arrival="98.00" arrivalLane="-E8_0" arrivalPos="58.81" arrivalSpeed="13.11" duration="16.00" routeLength="103.78" waitingTime="0.00" waitingCount="0" stopTime="0.00" timeLoss="6.72" rerouteNo="0" devices="tripinfo_41" vType="DEFAULT_VEHTYPE" speedFactor="0.96" vaporized=""/>
    <tripinfo id="9" depart="18.00" departLane="-E11_0" departPos="5.10" departSpeed="0.00" departDelay="0.00" arrival="104.00" arrivalLane="E3_0" arrivalPos="33.94" arrivalSpeed="10.72" duration="86.00" routeLength="213.29" waitingTime="54.00" waitingCount="2" stopTime="0.00" timeLoss="65.97" rerouteNo="0" devices="tripinfo_9" vType="DEFAULT_VEHTYPE" speedFactor="0.86" vaporized=""/>
    <tripinfo id="13" depart="26.00" departLane="-E20_0" departPos="5.10" departSpeed="0.00" departDelay="0.00" arrival="107.00" arrivalLane="-E4_0" arrivalPos="27.10" arrivalSpeed="13.03" duration="81.00" routeLength="197.42" waitingTime="49.00" waitingCount="2" stopTime="0.00" timeLoss="66.23" rerouteNo="0" devices="tripinfo_13" vType="DEFAULT_VEHTYPE" speedFactor="1.12" vaporized=""/>
    <tripinfo id="26" depart="52.00" departLane="-E1_0" departPos="5.10" departSpeed="0.00" departDelay="0.00" arrival="110.00" arrivalLane="E5_0" arrivalPos="60.98" arrivalSpeed="10.00" duration="58.00" routeLength="244.77" waitingTime="17.00" waitingCount="2" stopTime="0.00" timeLoss="36.28" rerouteNo="0" devices="tripinfo_26" vType="DEFAULT_VEHTYPE" speedFactor="0.92" vaporized=""/>
    <tripinfo id="14" depart="28.00" departLane="-E19_0" departPos="5.10" departSpeed="0.00" departDelay="0.00" arrival="111.00" arrivalLane="E12_0" arrivalPos="30.33" arrivalSpeed="13.14" duration="83.00" routeLength="225.47" waitingTime="49.00" waitingCount="2" stopTime="0.00" timeLoss="64.74" rerouteNo="0" devices="tripinfo_14" vType="DEFAULT_VEHTYPE" speedFactor="0.99" vaporized=""/>
    <tripinfo id="18" depart="36.00" departLane="-E17_0" departPos="5.10" departSpeed="0.00" departDelay="0.00" arrival="113.00" arrivalLane="E12_0" arrivalPos="30.33" arrivalSpeed="12.26" duration="77.00" routeLength="312.78" waitingTime="40.00" waitingCount="1" stopTime="0.00" timeLoss="52.08" rerouteNo="0" devices="tripinfo_18" vType="DEFAULT_VEHTYPE" speedFactor="0.94" vaporized=""/>
    <tripinfo id="3" depart="6.00" departLane="E1_0" departPos="5.10" departSpeed="0.00" departDelay="0.00" arrival="118.00" arrivalLane="-E9_0" arrivalPos="40.96" arrivalSpeed="7.47" duration="112.00" routeLength="324.14" waitingTime="60.00" waitingCount="2" stopTime="0.00" timeLoss="87.84" rerouteNo="0" devices="tripinfo_3" vType="DEFAULT_VEHTYPE" speedFactor="1.08" vaporized=""/>
    <tripinfo id="16" depart="32.00" departLane="-E6_0" departPos="5.10" departSpeed="0.00" departDelay="0.00" arrival="119.00" arrivalLane="-E2_0" arrivalPos="39.12" arrivalSpeed="8.64" duration="87.00" routeLength="333.13" waitingTime="43.00" waitingCount="1" stopTime="0.00" timeLoss="57.66" rerouteNo="0" devices="tripinfo_16" vType="DEFAULT_VEHTYPE" speedFactor="0.88" vaporized=""/>
    <tripinfo id="25" depart="50.00" departLane="-E6_0" departPos="5.10" departSpeed="0.00" departDelay="0.00" arrival="124.00" arrivalLane="-E8_0" arrivalPos="58.81" arrivalSpeed="11.38" duration="74.00" routeLength="284.84" waitingTime="32.00" waitingCount="1" stopTime="0.00" timeLoss="48.27" rerouteNo="0" devices="tripinfo_25" vType="DEFAULT_VEHTYPE" speedFactor="0.87" vaporized=""/>
    <tripinfo id="56" depart="112.00" departLane="-E17_0" departPos="5.10" departSpeed="0.00" departDelay="0.00" arrival="135.00" arrivalLane="E18_0" arrivalPos="25.15" arrivalSpeed="12.20" duration="23.00" routeLength="215.32" waitingTime="0.00" waitingCount="0" stopTime="0.00" timeLoss="4.28" rerouteNo="0" devices="tripinfo_56" vType="DEFAULT_VEHTYPE" speedFactor="0.90" vaporized=""/>
    <tripinfo id="65" depart="130.00" departLane="-E20_0" departPos="5.10" departSpeed="0.00" departDelay="0.00" arrival="140.00" arrivalLane="-E7_0" arrivalPos="29.56" arrivalSpeed="11.00" duration="10.00" routeLength="60.76" waitingTime="0.00" waitingCount="0" stopTime="0.00" timeLoss="4.76" rerouteNo="0" devices="tripinfo_65" vType="DEFAULT_VEHTYPE" speedFactor="0.88" vaporized=""/>
    <tripinfo id="19" depart="38.00" departLane="-E10_0" departPos="5.10" departSpeed="0.00" departDelay="0.00" arrival="141.00" arrivalLane="E23_0" arrivalPos="39.96" arrivalSpeed="14.53" duration="103.00" routeLength="186.16" waitingTime="75.00" waitingCount="2" stopTime="0.00" timeLoss="91.33" rerouteNo="0" devices="tripinfo_19" vType="DEFAULT_VEHTYPE" speedFactor="1.16" vaporized=""/>
    <tripinfo id="21" depart="42.00" departLane="E4_0" departPos="5.10" departSpeed="0.00" departDelay="0.00" arrival="143.00" arrivalLane="E13_0" arrivalPos="27.85" arrivalSpeed="13.72" duration="101.00" routeLength="241.81" waitingTime="54.00" waitingCount="4" stopTime="0.00" timeLoss="81.53" rerouteNo="0" devices="tripinfo_21" vType="DEFAULT_VEHTYPE" speedFactor="1.01" vaporized=""/>
    <tripinfo id="63" depart="126.00" departLane="E3_0" departPos="5.10" departSpeed="0.00" departDelay="0.00" arrival="143.00" arrivalLane="-E5_0" arrivalPos="60.98" arrivalSpeed="13.18" duration="17.00" routeLength="98.88" waitingTime="1.00" waitingCount="1" stopTime="0.00" timeLoss="8.84" rerouteNo="0" devices="tripinfo_63" vType="DEFAULT_VEHTYPE" speedFactor="0.99" vaporized=""/>
    <tripinfo id="30" depart="60.00" departLane="-E18_0" departPos="5.10" departSpeed="0.00" departDelay="0.00" arrival="146.00" arrivalLane="E3_0" arrivalPos="33.94" arrivalSpeed="12.75" duration="86.00" routeLength="174.18" waitingTime="55.00" waitingCount="2" stopTime="0.00" timeLoss="73.67" rerouteNo="0" devices="tripinfo_30" vType="DEFAULT_VEHTYPE" speedFactor="1.18" vaporized=""/>
    <tripinfo id="67" depart="134.00" departLane="E3_0" departPos="5.10" departSpeed="0.00" departDelay="0.00" arrival="147.00" arrivalLane="-E5_0" arrivalPos="60.98" arrivalSpeed="12.29" duration="13.00" routeLength="98.88" waitingTime="0.00" waitingCount="0" stopTime="0.00" timeLoss="4.22" rerouteNo="0" devices="tripinfo_67" vType="DEFAULT_VEHTYPE" speedFactor="0.91" vaporized=""/>
    <tripinfo id="71" depart="142.00" departLane="-E7_0" departPos="5.10" departSpeed="0.00" departDelay="0.00" arrival="147.00" arrivalLane="-E7_0" arrivalPos="29.56" arrivalSpeed="10.08" duration="5.00" routeLength="24.46" waitingTime="0.00" waitingCount="0" stopTime="0.00" timeLoss="2.63" rerouteNo="0" devices="tripinfo_71" vType="DEFAULT_VEHTYPE" speedFactor="0.97" vaporized=""/>
    <tripinfo id="48" depart="96.00" departLane="-E15_0" departPos="5.10" departSpeed="0.00" departDelay="0.00" arrival="148.00" arrivalLane="E17_0" arrivalPos="36.04" arrivalSpeed="11.28" duration="52.00" routeLength="185.65" waitingTime="23.00" waitingCount="1" stopTime="0.00" timeLoss="34.64" rerouteNo="0" devices="tripinfo_48" vType="DEFAULT_VEHTYPE" speedFactor="0.88" vaporized=""/>
    <tripinfo id="66" depart="132.00" departLane="-E14_0" departPos="5.10" departSpeed="0.00" departDelay="0.00" arrival="148.00" arrivalLane="E15_0" arrivalPos="42.32" arrivalSpeed="11.89" duration="16.00" routeLength="79.44" waitingTime="1.00" waitingCount="1" stopTime="0.00" timeLoss="8.14" rerouteNo="0" devices="tripinfo_66" vType="DEFAULT_VEHTYPE" speedFactor="0.91" vaporized=""/>
    <tripinfo id="12" depart="25.00" departLane="-E13_0" departPos="5.10" departSpeed="0.00" departDelay="1.00" arrival="149.00" arrivalLane="E20_0" arrivalPos="21.59" arrivalSpeed="13.78" duration="124.00" routeLength="224.18" waitingTime="81.00" waitingCount="3" stopTime="0.00" timeLoss="106.76" rerouteNo="0" devices="tripinfo_12" vType="DEFAULT_VEHTYPE" speedFactor="1.05" vaporized=""/>
    <tripinfo id="22" depart="44.00" departLane="-E11_0" departPos="5.10" departSpeed="0.00" departDelay="0.00" arrival="149.00" arrivalLane="E7_0" arrivalPos="29.56" arrivalSpeed="12.54" duration="105.00" routeLength="276.14" waitingTime="56.00" waitingCount="3" stopTime="0.00" timeLoss="81.45" rerouteNo="0" devices="tripinfo_22" vType="DEFAULT_VEHTYPE" speedFactor="0.97" vaporized=""/>
    <tripinfo id="24" depart="48.00" departLane="E5_0" departPos="5.10" departSpeed="0.00" departDelay="0.00" arrival="149.00" arrivalLane="E23_0" arrivalPos="39.96" arrivalSpeed="10.70" duration="101.00" routeLength="285.47" waitingTime="57.00" waitingCount="3" stopTime="0.00" timeLoss="73.98" rerouteNo="0" devices="tripinfo_24" vType="DEFAULT_VEHTYPE" speedFactor="0.83" vaporized=""/>
    <tripinfo id="36" depart="75.00" departLane="E5_0" departPos="5.10" departSpeed="0.00" departDelay="3.00" arrival="150.00" arrivalLane="-E11_0" arrivalPos="38.72" arrivalSpeed="6.41" duration="75.00" routeLength="223.24" waitingTime="24.00" waitingCount="4" stopTime="0.00" timeLoss="57.83" rerouteNo="0" devices="tripinfo_36" vType="DEFAULT_VEHTYPE" speedFactor="0.97" vaporized=""/>
    <tripinfo id="33" depart="66.00" departLane="-E1_0" departPos="5.10" departSpeed="0.00" departDelay="0.00" arrival="151.00" arrivalLane="-E10_0" arrivalPos="63.43" arrivalSpeed="15.41" duration="85.00" routeLength="346.30" waitingTime="35.00" waitingCount="4" stopTime="0.00" timeLoss="60.87" rerouteNo="0" devices="tripinfo_33" vType="DEFAULT_VEHTYPE" speedFactor="1.17" vaporized=""/>
    <tripinfo id="42" depart="84.00" departLane="E5_0" departPos="5.10" departSpeed="0.00" departDelay="0.00" arrival="154.00" arrivalLane="E4_0" arrivalPos="27.10" arrivalSpeed="12.79" duration="70.00" routeLength="220.06" waitingTime="24.00" waitingCount="4" stopTime="0.00" timeLoss="53.57" rerouteNo="0" devices="tripinfo_42" vType="DEFAULT_VEHTYPE" speedFactor="1.09" vaporized=""/>
    <tripinfo id="5" depart="10.00" departLane="E8_0" departPos="5.10" departSpeed="0.00" departDelay="0.00" arrival="160.00" arrivalLane="E7_0" arrivalPos="29.56" arrivalSpeed="11.08" duration="150.00" routeLength="294.72" waitingTime="92.00" waitingCount="4" stopTime="0.00" timeLoss="120.76" rerouteNo="0" devices="tripinfo_5" vType="DEFAULT_VEHTYPE" speedFactor="0.83" vaporized=""/>
    <tripinfo id="59" depart="118.00" departLane="E9_0" departPos="5.10" departSpeed="0.00" departDelay="0.00" arrival="160.00" arrivalLane="E13_0" arrivalPos="27.85" arrivalSpeed="13.35" duration="42.00" routeLength="206.02" waitingTime="11.00" waitingCount="1" stopTime="0.00" timeLoss="24.91" rerouteNo="0" devices="tripinfo_59" vType="DEFAULT_VEHTYPE" speedFactor="0.97" vaporized=""/>
    <tripinfo id="52" depart="104.00" departLane="E9_0" departPos="5.10" departSpeed="0.00" departDelay="0.00" arrival="165.00" arrivalLane="E23_0" arrivalPos="39.96" arrivalSpeed="13.49" duration="61.00" routeLength="291.18" waitingTime="18.00" waitingCount="2" stopTime="0.00" timeLoss="38.22" rerouteNo="0" devices="tripinfo_52" vType="DEFAULT_VEHTYPE" speedFactor="1.02" vaporized=""/>
    <tripinfo id="35" depart="70.00" departLane="E8_0" departPos="5.10" departSpeed="0.00" departDelay="0.00" arrival="169.00" arrivalLane="E15_0" arrivalPos="42.32" arrivalSpeed="13.89" duration="99.00" routeLength="362.04" waitingTime="37.00" waitingCount="3" stopTime="0.00" timeLoss="70.12" rerouteNo="0" devices="tripinfo_35" vType="DEFAULT_VEHTYPE" speedFactor="1.02" vaporized=""/>
    <tripinfo id="50" depart="100.00" departLane="-E16_0" departPos="5.10" departSpeed="0.00" departDelay="0.00" arrival="172.00" arrivalLane="E19_0" arrivalPos="18.28" arrivalSpeed="11.42" duration="72.00" routeLength="184.94" waitingTime="38.00" waitingCount="2" stopTime="0.00" timeLoss="54.56" rerouteNo="0" devices="tripinfo_50" vType="DEFAULT_VEHTYPE" speedFactor="0.85" vaporized=""/>
    <tripinfo id="23" depart="46.00" departLane="-E4_0" departPos="5.10" departSpeed="0.00" departDelay="0.00" arrival="186.00" arrivalLane="E18_0" arrivalPos="25.15" arrivalSpeed="11.45" duration="140.00" routeLength="243.83" waitingTime="96.00" waitingCount="3" stopTime="0.00" timeLoss="117.25" rerouteNo="0" devices="tripinfo_23" vType="DEFAULT_VEHTYPE" speedFactor="0.89" vaporized=""/>
    <tripinfo id="44" depart="88.00" departLane="-E14_0" departPos="5.10" departSpeed="0.00" departDelay="0.00" arrival="186.00" arrivalLane="E7_0" arrivalPos="29.56" arrivalSpeed="13.51" duration="98.00" routeLength="120.51" waitingTime="75.00" waitingCount="2" stopTime="0.00" timeLoss="88.93" rerouteNo="0" devices="tripinfo_44" vType="DEFAULT_VEHTYPE" speedFactor="1.04" vaporized=""/>
    <tripinfo id="90" depart="180.00" departLane="-E11_0" departPos="5.10" departSpeed="0.00" departDelay="0.00" arrival="186.00" arrivalLane="-E11_0" arrivalPos="38.72" arrivalSpeed="12.08" duration="6.00" routeLength="33.62" waitingTime="0.00" waitingCount="0" stopTime="0.00" timeLoss="3.09" rerouteNo="0" devices="tripinfo_90" vType="DEFAULT_VEHTYPE" speedFactor="1.02" vaporized=""/>
    <tripinfo id="37" depart="74.00" departLane="-E12_0" departPos="5.10" departSpeed="0.00" departDelay="0.00" arrival="187.00" arrivalLane="E12_0" arrivalPos="30.33" arrivalSpeed="13.90" duration="113.00" routeLength="310.70" waitingTime="60.00" waitingCount="4" stopTime="0.00" timeLoss="91.08" rerouteNo="0" devices="tripinfo_37" vType="DEFAULT_VEHTYPE" speedFactor="1.18" vaporized=""/>
    <tripinfo id="34" depart="69.00" departLane="E10_0" departPos="5.10" departSpeed="0.00" departDelay="1.00" arrival="191.00" arrivalLane="E6_0" arrivalPos="54.42" arrivalSpeed="3.11" duration="122.00" routeLength="291.43" waitingTime="63.00" waitingCount="5" stopTime="0.00" timeLoss="98.07" rerouteNo="0" devices="tripinfo_34" vType="DEFAULT_VEHTYPE" speedFactor="0.99" vaporized=""/>
    <tripinfo id="40" depart="80.00" departLane="-E16_0" departPos="5.10" departSpeed="0.00" departDelay="0.00" arrival="191.00" arrivalLane="-E5_0" arrivalPos="60.98" arrivalSpeed="12.36" duration="111.00" routeLength="214.87" waitingTime="77.00" waitingCount="2" stopTime="0.00" timeLoss="94.34" rerouteNo="0" devices="tripinfo_40" vType="DEFAULT_VEHTYPE" speedFactor="1.03" vaporized=""/>
    <tripinfo id="61" depart="122.00" departLane="E1_0" departPos="5.10" departSpeed="0.00" departDelay="0.00" arrival="191.00" arrivalLane="-E6_0" arrivalPos="54.42" arrivalSpeed="7.77" duration="69.00" routeLength="156.54" waitingTime="37.00" waitingCount="2" stopTime="0.00" timeLoss="57.58" rerouteNo="0" devices="tripinfo_61" vType="DEFAULT_VEHTYPE" speedFactor="1.12" vaporized=""/>
    <tripinfo id="76" depart="169.00" departLane="E3_0" departPos="5.10" departSpeed="0.00" departDelay="17.00" arrival="191.00" arrivalLane="-E4_0" arrivalPos="27.10" arrivalSpeed="7.05" duration="22.00" routeLength="135.36" waitingTime="0.00" waitingCount="0" stopTime="0.00" timeLoss="11.55" rerouteNo="0" devices="tripinfo_76" vType="DEFAULT_VEHTYPE" speedFactor="1.03" vaporized=""/>
    <tripinfo id="39" depart="78.00" departLane="-E8_0" departPos="5.10" departSpeed="0.00" departDelay="0.00" arrival="192.00" arrivalLane="-E3_0" arrivalPos="33.94" arrivalSpeed="11.21" duration="114.00" routeLength="331.40" waitingTime="63.00" waitingCount="3" stopTime="0.00" timeLoss="84.89" rerouteNo="0" devices="tripinfo_39" vType="DEFAULT_VEHTYPE" speedFactor="0.90" vaporized=""/>
    <tripinfo id="78" depart="156.00" departLane="-E19_0" departPos="5.10" departSpeed="0.00" departDelay="0.00" arrival="193.00" arrivalLane="E18_0" arrivalPos="25.15" arrivalSpeed="13.79" duration="37.00" routeLength="128.01" waitingTime="14.00" waitingCount="1" stopTime="0.00" timeLoss="25.47" rerouteNo="0" devices="tripinfo_78" vType="DEFAULT_VEHTYPE" speedFactor="1.01" vaporized=""/>
    <tripinfo id="38" depart="77.00" departLane="E11_0" departPos="5.10" departSpeed="0.00" departDelay="1.00" arrival="194.00" arrivalLane="-E7_0" arrivalPos="29.56" arrivalSpeed="12.12" duration="117.00" routeLength="263.30" waitingTime="69.00" waitingCount="5" stopTime="0.00" timeLoss="97.39" rerouteNo="0" devices="tripinfo_38" vType="DEFAULT_VEHTYPE" speedFactor="1.10" vaporized=""/>
    <tripinfo id="45" depart="90.00" departLane="-E7_0" departPos="5.10" departSpeed="0.00" departDelay="0.00" arrival="194.00" arrivalLane="E6_0" arrivalPos="54.42" arrivalSpeed="6.51" duration="104.00" routeLength="214.54" waitingTime="50.00" waitingCount="5" stopTime="0.00" timeLoss="87.35" rerouteNo="0" devices="tripinfo_45" vType="DEFAULT_VEHTYPE" speedFactor="1.09" vaporized=""/>
    <tripinfo id="57" depart="114.00" departLane="-E10_0" departPos="5.10" departSpeed="0.00" departDelay="0.00" arrival="194.00" arrivalLane="-E6_0" arrivalPos="54.42" arrivalSpeed="10.44" duration="80.00" routeLength="287.52" waitingTime="31.00" waitingCount="2" stopTime="0.00" timeLoss="59.30" rerouteNo="0" devices="tripinfo_57" vType="DEFAULT_VEHTYPE" speedFactor="1.14" vaporized=""/>
    <tripinfo id="80" depart="160.00" departLane="-E8_0" departPos="5.10" departSpeed="0.00" departDelay="0.00" arrival="194.00" arrivalLane="E15_0" arrivalPos="42.32" arrivalSpeed="13.41" duration="34.00" routeLength="188.95" waitingTime="12.00" waitingCount="1" stopTime="0.00" timeLoss="20.42" rerouteNo="0" devices="tripinfo_80" vType="DEFAULT_VEHTYPE" speedFactor="1.03" vaporized=""/>
    <tripinfo id="29" depart="58.00" departLane="E11_0" departPos="5.10" departSpeed="0.00" departDelay="0.00" arrival="195.00" arrivalLane="E12_0" arrivalPos="30.33" arrivalSpeed="12.13" duration="137.00" routeLength="271.28" waitingTime="87.00" waitingCount="4" stopTime="0.00" timeLoss="113.83" rerouteNo="0" devices="tripinfo_29" vType="DEFAULT_VEHTYPE" speedFactor="0.93" vaporized=""/>
    <tripinfo id="60" depart="121.00" departLane="E9_0" departPos="5.10" departSpeed="0.00" departDelay="1.00" arrival="195.00" arrivalLane="-E9_0" arrivalPos="40.96" arrivalSpeed="11.58" duration="74.00" routeLength="315.22" waitingTime="24.00" waitingCount="2" stopTime="0.00" timeLoss="50.20" rerouteNo="0" devices="tripinfo_60" vType="DEFAULT_VEHTYPE" speedFactor="1.08" vaporized=""/>
    <tripinfo id="17" depart="34.00" departLane="-E18_0" departPos="5.10" departSpeed="0.00" departDelay="0.00" arrival="196.00" arrivalLane="-E6_0" arrivalPos="54.42" arrivalSpeed="12.04" duration="162.00" routeLength="307.31" waitingTime="96.00" waitingCount="4" stopTime="0.00" timeLoss="135.33" rerouteNo="0" devices="tripinfo_17" vType="DEFAULT_VEHTYPE" speedFactor="0.94" vaporized=""/>
    <tripinfo id="43" depart="86.00" departLane="E1_0" departPos="5.10" departSpeed="0.00" departDelay="0.00" arrival="196.00" arrivalLane="-E5_0" arrivalPos="60.98" arrivalSpeed="14.05" duration="110.00" routeLength="232.13" waitingTime="68.00" waitingCount="2" stopTime="0.00" timeLoss="92.18" rerouteNo="0" devices="tripinfo_43" vType="DEFAULT_VEHTYPE" speedFactor="1.04" vaporized=""/>
    <tripinfo id="46" depart="92.00" departLane="-E22_0" departPos="5.10" departSpeed="0.00" departDelay="0.00" arrival="199.00" arrivalLane="-E2_0" arrivalPos="39.12" arrivalSpeed="12.33" duration="107.00" routeLength="199.75" waitingTime="70.00" waitingCount="3" stopTime="0.00" timeLoss="90.28" rerouteNo="0" devices="tripinfo_46" vType="DEFAULT_VEHTYPE" speedFactor="1.00" vaporized=""/>
    <tripinfo id="49" depart="98.00" departLane="-E0_0" departPos="5.10" departSpeed="0.00" departDelay="0.00" arrival="201.00" arrivalLane="E15_0" arrivalPos="42.32" arrivalSpeed="11.57" duration="103.00" routeLength="308.04" waitingTime="61.00" waitingCount="2" stopTime="0.00" timeLoss="74.72" rerouteNo="0" devices="tripinfo_49" vType="DEFAULT_VEHTYPE" speedFactor="0.85" vaporized=""/>
    <tripinfo id="68" depart="136.00" departLane="-E22_0" departPos="5.10" departSpeed="0.00" departDelay="0.00" arrival="202.00" arrivalLane="-E2_0" arrivalPos="39.12" arrivalSpeed="13.74" duration="66.00" routeLength="199.75" waitingTime="31.00" waitingCount="2" stopTime="0.00" timeLoss="49.13" rerouteNo="0" devices="tripinfo_68" vType="DEFAULT_VEHTYPE" speedFactor="1.04" vaporized=""/>
    <tripinfo id="1" depart="2.00" departLane="E8_0" departPos="5.10" departSpeed="0.00" departDelay="0.00" arrival="203.00" arrivalLane="E20_0" arrivalPos="21.59" arrivalSpeed="11.23" duration="201.00" routeLength="325.92" waitingTime="135.00" waitingCount="6" stopTime="0.00" timeLoss="173.59" rerouteNo="0" devices="tripinfo_1" vType="DEFAULT_VEHTYPE" speedFactor="0.94" vaporized=""/>
    <tripinfo id="7" depart="14.00" departLane="E4_0" departPos="5.10" departSpeed="0.00" departDelay="0.00" arrival="204.00" arrivalLane="-E10_0" arrivalPos="63.43" arrivalSpeed="4.07" duration="190.00" routeLength="342.66" waitingTime="119.00" waitingCount="8" stopTime="0.00" timeLoss="159.81" rerouteNo="0" devices="tripinfo_7" vType="DEFAULT_VEHTYPE" speedFactor="0.89" vaporized=""/>
    <tripinfo id="28" depart="56.00" departLane="E7_0" departPos="5.10" departSpeed="0.00" departDelay="0.00" arrival="206.00" arrivalLane="-E10_0" arrivalPos="63.43" arrivalSpeed="5.72" duration="150.00" routeLength="330.92" waitingTime="87.00" waitingCount="4" stopTime="0.00" timeLoss="126.48" rerouteNo="0" devices="tripinfo_28" vType="DEFAULT_VEHTYPE" speedFactor="1.13" vaporized=""/>
    <tripinfo id="79" depart="192.00" departLane="-E6_0" departPos="5.10" departSpeed="0.00" departDelay="34.00" arrival="217.00" arrivalLane="E22_0" arrivalPos="33.36" arrivalSpeed="14.56" duration="25.00" routeLength="208.97" waitingTime="0.00" waitingCount="0" stopTime="0.00" timeLoss="9.07" rerouteNo="0" devices="tripinfo_79" vType="DEFAULT_VEHTYPE" speedFactor="1.09" vaporized=""/>
    <tripinfo id="75" depart="151.00" departLane="-E2_0" departPos="5.10" departSpeed="0.00" departDelay="1.00" arrival="231.00" arrivalLane="E7_0" arrivalPos="29.56" arrivalSpeed="11.25" duration="80.00" routeLength="145.25" waitingTime="50.00" waitingCount="3" stopTime="0.00" timeLoss="67.72" rerouteNo="0" devices="tripinfo_75" vType="DEFAULT_VEHTYPE" speedFactor="0.98" vaporized=""/>
    <tripinfo id="82" depart="164.00" departLane="-E16_0" departPos="5.10" departSpeed="0.00" departDelay="0.00" arrival="231.00" arrivalLane="E22_0" arrivalPos="33.36" arrivalSpeed="13.17" duration="67.00" routeLength="226.22" waitingTime="41.00" waitingCount="1" stopTime="0.00" timeLoss="50.81" rerouteNo="0" devices="tripinfo_82" vType="DEFAULT_VEHTYPE" speedFactor="1.02" vaporized=""/>
    <tripinfo id="51" depart="102.00" departLane="-E19_0" departPos="5.10" departSpeed="0.00" departDelay="0.00" arrival="233.00" arrivalLane="E13_0" arrivalPos="27.85" arrivalSpeed="15.88" duration="131.00" routeLength="158.15" waitingTime="98.00" waitingCount="3" stopTime="0.00" timeLoss="120.31" rerouteNo="0" devices="tripinfo_51" vType="DEFAULT_VEHTYPE" speedFactor="1.17" vaporized=""/>
    <tripinfo id="70" depart="140.00" departLane="-E20_0" departPos="5.10" departSpeed="0.00" departDelay="0.00" arrival="233.00" arrivalLane="E7_0" arrivalPos="29.56" arrivalSpeed="12.24" duration="93.00" routeLength="234.50" waitingTime="48.00" waitingCount="3" stopTime="0.00" timeLoss="73.12" rerouteNo="0" devices="tripinfo_70" vType="DEFAULT_VEHTYPE" speedFactor="1.02" vaporized=""/>
    <tripinfo id="47" depart="94.00" departLane="-E19_0" departPos="5.10" departSpeed="0.00" departDelay="0.00" arrival="234.00" arrivalLane="E8_0" arrivalPos="58.81" arrivalSpeed="12.15" duration="140.00" routeLength="188.85" waitingTime="106.00" waitingCount="3" stopTime="0.00" timeLoss="123.64" rerouteNo="0" devices="tripinfo_47" vType="DEFAULT_VEHTYPE" speedFactor="0.90" vaporized=""/>
    <tripinfo id="64" depart="128.00" departLane="-E17_0" departPos="5.10" departSpeed="0.00" departDelay="0.00" arrival="234.00" arrivalLane="-E10_0" arrivalPos="63.43" arrivalSpeed="11.83" duration="106.00" routeLength="201.07" waitingTime="76.00" waitingCount="2" stopTime="0.00" timeLoss="88.77" rerouteNo="0" devices="tripinfo_64" vType="DEFAULT_VEHTYPE" speedFactor="0.94" vaporized=""/>
    <tripinfo id="84" depart="168.00" departLane="-E2_0" departPos="5.10" departSpeed="0.00" departDelay="0.00" arrival="234.00" arrivalLane="-E9_0" arrivalPos="40.96" arrivalSpeed="12.61" duration="66.00" routeLength="153.19" waitingTime="34.00" waitingCount="3" stopTime="0.00" timeLoss="54.68" rerouteNo="0" devices="tripinfo_84" vType="DEFAULT_VEHTYPE" speedFactor="1.15" vaporized=""/>
    <tripinfo id="69" depart="141.00" departLane="-E1_0" departPos="5.10" departSpeed="0.00" departDelay="3.00" arrival="236.00" arrivalLane="-E10_0" arrivalPos="63.43" arrivalSpeed="13.77" duration="95.00" routeLength="346.30" waitingTime="36.00" waitingCount="4" stopTime="0.00" timeLoss="67.48" rerouteNo="0" devices="tripinfo_69" vType="DEFAULT_VEHTYPE" speedFactor="1.02" vaporized=""/>